unknown system                          
   1.00000000000000     
     6.000000    0.000000    0.000000
     0.000000    6.000000    0.000000
     0.000000    0.000000    6.000000
   H    C    O 
     4     1     1
Direct
  0.335706  0.658971  0.500000
  0.664294  0.322597  0.500000
  0.590729  0.677403  0.648629
  0.590729  0.677403  0.351371
  0.510017  0.608072  0.500000
  0.510017  0.370915  0.500000
 
   56   56   56
 0.96615E-03 0.93117E-03 0.96930E-03 0.11015E-02 0.14645E-02 0.21436E-02 0.28980E-02 0.32133E-02 0.27772E-02 0.18347E-02
 0.95636E-03 0.51884E-03 0.52632E-03 0.83913E-03 0.13484E-02 0.19070E-02 0.23190E-02 0.25454E-02 0.28182E-02 0.34154E-02
 0.43661E-02 0.54633E-02 0.65148E-02 0.74775E-02 0.83845E-02 0.92613E-02 0.10122E-01 0.10951E-01 0.11666E-01 0.12157E-01
 0.12393E-01 0.12415E-01 0.12241E-01 0.11827E-01 0.11161E-01 0.10293E-01 0.92659E-02 0.81211E-02 0.69921E-02 0.60828E-02
 0.54445E-02 0.48697E-02 0.41365E-02 0.33046E-02 0.26346E-02 0.22625E-02 0.21216E-02 0.21770E-02 0.25121E-02 0.30756E-02
 0.35150E-02 0.34508E-02 0.28678E-02 0.21031E-02 0.14893E-02 0.11277E-02 0.11176E-02 0.98938E-03 0.10156E-02 0.12814E-02
 0.17149E-02 0.21465E-02 0.24046E-02 0.23636E-02 0.19911E-02 0.14074E-02 0.86952E-03 0.63410E-03 0.80201E-03 0.12722E-02
 0.18196E-02 0.22251E-02 0.23934E-02 0.24065E-02 0.24648E-02 0.27358E-02 0.32439E-02 0.39073E-02 0.46612E-02 0.55119E-02
 0.64720E-02 0.74798E-02 0.84032E-02 0.91110E-02 0.95414E-02 0.97252E-02 0.97512E-02 0.96842E-02 0.94931E-02 0.90719E-02
 0.83522E-02 0.73947E-02 0.63709E-02 0.54693E-02 0.48139E-02 0.44156E-02 0.41546E-02 0.38332E-02 0.33161E-02 0.26501E-02
 0.20296E-02 0.16442E-02 0.15772E-02 0.18168E-02 0.22698E-02 0.27287E-02 0.29177E-02 0.26896E-02 0.21803E-02 0.16929E-02
 0.14075E-02 0.12605E-02 0.14247E-02 0.13536E-02 0.14250E-02 0.16587E-02 0.18494E-02 0.18078E-02 0.15867E-02 0.13746E-02
 0.12325E-02 0.10824E-02 0.94522E-03 0.10196E-02 0.14369E-02 0.20371E-02 0.24986E-02 0.26496E-02 0.25706E-02 0.24315E-02
 0.23369E-02 0.23323E-02 0.24552E-02 0.27280E-02 0.31550E-02 0.37581E-02 0.45594E-02 0.54823E-02 0.63148E-02 0.68392E-02
 0.69985E-02 0.69124E-02 0.67458E-02 0.65838E-02 0.63957E-02 0.60669E-02 0.54915E-02 0.46994E-02 0.39038E-02 0.33672E-02
 0.31897E-02 0.32478E-02 0.33286E-02 0.32783E-02 0.30293E-02 0.25819E-02 0.20354E-02 0.15917E-02 0.14335E-02 0.15699E-02
 0.18253E-02 0.19828E-02 0.19323E-02 0.17159E-02 0.14823E-02 0.13762E-02 0.14139E-02 0.14674E-02 0.19185E-02 0.20635E-02
 0.20512E-02 0.19166E-02 0.16715E-02 0.13364E-02 0.10121E-02 0.82164E-03 0.79159E-03 0.88448E-03 0.11346E-02 0.16263E-02
 0.22947E-02 0.28632E-02 0.30820E-02 0.29813E-02 0.28039E-02 0.27236E-02 0.27180E-02 0.26932E-02 0.26278E-02 0.25736E-02
 0.26067E-02 0.28156E-02 0.32574E-02 0.38553E-02 0.43807E-02 0.46119E-02 0.45144E-02 0.42423E-02 0.39846E-02 0.38339E-02
 0.37623E-02 0.36579E-02 0.34030E-02 0.29888E-02 0.25723E-02 0.23704E-02 0.24724E-02 0.27716E-02 0.30696E-02 0.32053E-02
 0.31009E-02 0.27734E-02 0.23482E-02 0.19949E-02 0.17838E-02 0.16312E-02 0.14349E-02 0.12212E-02 0.10954E-02 0.10856E-02
 0.11292E-02 0.12043E-02 0.13711E-02 0.16450E-02 0.22976E-02 0.25693E-02 0.24543E-02 0.19867E-02 0.14195E-02 0.10034E-02
 0.79386E-03 0.69250E-03 0.66575E-03 0.85477E-03 0.14119E-02 0.22472E-02 0.30111E-02 0.33722E-02 0.33029E-02 0.30796E-02
 0.30213E-02 0.32371E-02 0.35800E-02 0.37921E-02 0.36992E-02 0.33296E-02 0.28925E-02 0.26282E-02 0.26327E-02 0.27965E-02
 0.29030E-02 0.27972E-02 0.24893E-02 0.21313E-02 0.19024E-02 0.18919E-02 0.20548E-02 0.22637E-02 0.24062E-02 0.24464E-02
 0.24253E-02 0.24321E-02 0.25608E-02 0.28366E-02 0.31469E-02 0.32860E-02 0.31349E-02 0.27991E-02 0.25079E-02 0.23549E-02
 0.21927E-02 0.18290E-02 0.12935E-02 0.83941E-03 0.68126E-03 0.79340E-03 0.99631E-03 0.11911E-02 0.14447E-02 0.18412E-02
 0.21582E-02 0.23460E-02 0.23541E-02 0.19911E-02 0.13828E-02 0.90930E-03 0.76265E-03 0.78687E-03 0.83996E-03 0.10895E-02
 0.17480E-02 0.26425E-02 0.32882E-02 0.33984E-02 0.31619E-02 0.30038E-02 0.32103E-02 0.37866E-02 0.45029E-02 0.49896E-02
 0.49332E-02 0.43333E-02 0.35425E-02 0.29661E-02 0.27276E-02 0.26575E-02 0.25352E-02 0.22639E-02 0.18770E-02 0.14998E-02
 0.13025E-02 0.13896E-02 0.17049E-02 0.20952E-02 0.24541E-02 0.27418E-02 0.29101E-02 0.29337E-02 0.29149E-02 0.30045E-02
 0.31641E-02 0.31508E-02 0.28402E-02 0.24432E-02 0.22540E-02 0.22609E-02 0.21780E-02 0.18325E-02 0.13458E-02 0.92966E-03
 0.68317E-03 0.64344E-03 0.85318E-03 0.12587E-02 0.16693E-02 0.19506E-02 0.15859E-02 0.16294E-02 0.18929E-02 0.18997E-02
 0.14664E-02 0.10014E-02 0.91659E-03 0.11116E-02 0.12939E-02 0.15134E-02 0.20185E-02 0.27179E-02 0.31718E-02 0.31498E-02
 0.29227E-02 0.29278E-02 0.33541E-02 0.41068E-02 0.49466E-02 0.55347E-02 0.55498E-02 0.49767E-02 0.42153E-02 0.37430E-02
 0.36933E-02 0.38436E-02 0.39259E-02 0.38203E-02 0.35249E-02 0.31277E-02 0.28122E-02 0.27404E-02 0.28919E-02 0.31078E-02
 0.32818E-02 0.33940E-02 0.33930E-02 0.32231E-02 0.29852E-02 0.28709E-02 0.28638E-02 0.27045E-02 0.22780E-02 0.18460E-02
 0.17080E-02 0.17852E-02 0.17740E-02 0.15954E-02 0.14092E-02 0.12490E-02 0.99116E-03 0.72900E-03 0.80571E-03 0.12931E-02
 0.17507E-02 0.17806E-02 0.11191E-02 0.11286E-02 0.14300E-02 0.15906E-02 0.14060E-02 0.12132E-02 0.13571E-02 0.16805E-02
 0.18323E-02 0.18512E-02 0.20771E-02 0.25675E-02 0.29675E-02 0.30165E-02 0.28973E-02 0.29714E-02 0.33780E-02 0.40110E-02
 0.46943E-02 0.52182E-02 0.53615E-02 0.51046E-02 0.47757E-02 0.48046E-02 0.53167E-02 0.60582E-02 0.66758E-02 0.69490E-02
 0.68096E-02 0.63269E-02 0.57176E-02 0.52248E-02 0.49155E-02 0.46671E-02 0.43628E-02 0.39949E-02 0.35736E-02 0.30938E-02
 0.26441E-02 0.23817E-02 0.22935E-02 0.21345E-02 0.17511E-02 0.13373E-02 0.11843E-02 0.12801E-02 0.13765E-02 0.13823E-02
 0.14191E-02 0.14931E-02 0.14254E-02 0.12072E-02 0.11229E-02 0.13209E-02 0.15147E-02 0.13896E-02 0.10830E-02 0.11507E-02
 0.11992E-02 0.11832E-02 0.12148E-02 0.14697E-02 0.19111E-02 0.22224E-02 0.21616E-02 0.19172E-02 0.19351E-02 0.23853E-02
 0.29631E-02 0.32706E-02 0.32510E-02 0.31624E-02 0.32495E-02 0.35658E-02 0.40297E-02 0.44989E-02 0.48201E-02 0.49667E-02
 0.51640E-02 0.57529E-02 0.68512E-02 0.81902E-02 0.93104E-02 0.98671E-02 0.97591E-02 0.90974E-02 0.81409E-02 0.71871E-02
 0.63985E-02 0.57216E-02 0.50153E-02 0.42328E-02 0.34402E-02 0.27213E-02 0.21510E-02 0.18109E-02 0.17045E-02 0.16626E-02
 0.14719E-02 0.11391E-02 0.91018E-03 0.96203E-03 0.11825E-02 0.13476E-02 0.14192E-02 0.15281E-02 0.17108E-02 0.18210E-02
 0.17274E-02 0.14783E-02 0.12297E-02 0.10918E-02 0.12823E-02 0.13962E-02 0.12084E-02 0.98451E-03 0.11103E-02 0.16292E-02
 0.21960E-02 0.24076E-02 0.21624E-02 0.17765E-02 0.17586E-02 0.23607E-02 0.32899E-02 0.39345E-02 0.39308E-02 0.34756E-02
 0.30767E-02 0.30824E-02 0.34846E-02 0.40579E-02 0.45786E-02 0.49818E-02 0.54441E-02 0.62899E-02 0.76752E-02 0.93224E-02
 0.10649E-01 0.11196E-01 0.10899E-01 0.99893E-02 0.87787E-02 0.75549E-02 0.65200E-02 0.56863E-02 0.48875E-02 0.39943E-02
 0.30820E-02 0.23229E-02 0.17889E-02 0.14584E-02 0.13299E-02 0.13707E-02 0.14000E-02 0.12295E-02 0.94751E-03 0.86014E-03
 0.10707E-02 0.13158E-02 0.13618E-02 0.13738E-02 0.16433E-02 0.20553E-02 0.21459E-02 0.17352E-02 0.12206E-02 0.10808E-02
 0.14278E-02 0.15587E-02 0.13594E-02 0.10711E-02 0.11181E-02 0.15808E-02 0.21058E-02 0.22655E-02 0.19625E-02 0.15674E-02
 0.16788E-02 0.25944E-02 0.39182E-02 0.47945E-02 0.46685E-02 0.38054E-02 0.30065E-02 0.28822E-02 0.34528E-02 0.43231E-02
 0.50718E-02 0.55323E-02 0.59045E-02 0.66241E-02 0.79471E-02 0.95717E-02 0.10783E-01 0.11048E-01 0.10401E-01 0.92465E-02
 0.79563E-02 0.67488E-02 0.57639E-02 0.50171E-02 0.43343E-02 0.35380E-02 0.26994E-02 0.20514E-02 0.16692E-02 0.14234E-02
 0.12518E-02 0.12456E-02 0.13863E-02 0.14325E-02 0.12384E-02 0.10015E-02 0.98045E-03 0.11046E-02 0.11301E-02 0.10988E-02
 0.13039E-02 0.17591E-02 0.20372E-02 0.18249E-02 0.13901E-02 0.12358E-02 0.15338E-02 0.17033E-02 0.15553E-02 0.11921E-02
 0.10554E-02 0.14023E-02 0.19446E-02 0.21201E-02 0.17499E-02 0.13545E-02 0.17091E-02 0.30264E-02 0.46211E-02 0.54603E-02
 0.50765E-02 0.39483E-02 0.30464E-02 0.30653E-02 0.40095E-02 0.53225E-02 0.63348E-02 0.67416E-02 0.68333E-02 0.72379E-02
 0.82875E-02 0.96026E-02 0.10388E-01 0.10161E-01 0.91132E-02 0.77986E-02 0.66295E-02 0.57315E-02 0.50802E-02 0.45685E-02
 0.40104E-02 0.32903E-02 0.25371E-02 0.20055E-02 0.17546E-02 0.15922E-02 0.13855E-02 0.12590E-02 0.13617E-02 0.15706E-02
 0.16041E-02 0.13792E-02 0.10804E-02 0.88454E-03 0.79847E-03 0.80491E-03 0.97460E-03 0.13044E-02 0.15790E-02 0.15810E-02
 0.13988E-02 0.13446E-02 0.17207E-02 0.19619E-02 0.17211E-02 0.11507E-02 0.87899E-03 0.12955E-02 0.19860E-02 0.21551E-02
 0.16396E-02 0.12367E-02 0.18499E-02 0.34411E-02 0.50067E-02 0.55407E-02 0.48884E-02 0.37502E-02 0.30848E-02 0.35077E-02
 0.49629E-02 0.67480E-02 0.79786E-02 0.82852E-02 0.81151E-02 0.82364E-02 0.89139E-02 0.96478E-02 0.97208E-02 0.88886E-02
 0.75130E-02 0.61702E-02 0.52429E-02 0.47889E-02 0.46058E-02 0.43729E-02 0.38573E-02 0.30934E-02 0.23549E-02 0.18972E-02
 0.17250E-02 0.16356E-02 0.14750E-02 0.13082E-02 0.13141E-02 0.15363E-02 0.17796E-02 0.17767E-02 0.14494E-02 0.98553E-03
 0.66418E-03 0.63036E-03 0.82610E-03 0.10762E-02 0.12147E-02 0.11995E-02 0.11717E-02 0.13446E-02 0.18919E-02 0.22077E-02
 0.18089E-02 0.10423E-02 0.76354E-03 0.13426E-02 0.21449E-02 0.22699E-02 0.17020E-02 0.13917E-02 0.21278E-02 0.36103E-02
 0.47926E-02 0.49402E-02 0.41924E-02 0.32987E-02 0.30858E-02 0.40381E-02 0.59856E-02 0.80765E-02 0.93423E-02 0.95177E-02
 0.92184E-02 0.92012E-02 0.95698E-02 0.98214E-02 0.95098E-02 0.86364E-02 0.74742E-02 0.62888E-02 0.52843E-02 0.45799E-02
 0.40796E-02 0.34869E-02 0.26088E-02 0.16100E-02 0.86574E-03 0.59221E-03 0.69363E-03 0.92044E-03 0.10800E-02 0.11241E-02
 0.11447E-02 0.12921E-02 0.16002E-02 0.18712E-02 0.18225E-02 0.14009E-02 0.89228E-03 0.66207E-03 0.80262E-03 0.10664E-02
 0.11428E-02 0.99813E-03 0.93848E-03 0.12775E-02 0.18619E-02 0.22368E-02 0.18058E-02 0.10179E-02 0.80239E-03 0.14405E-02
 0.22207E-02 0.23548E-02 0.19569E-02 0.18385E-02 0.24728E-02 0.34741E-02 0.40979E-02 0.39863E-02 0.33825E-02 0.28927E-02
 0.31734E-02 0.45740E-02 0.67704E-02 0.88242E-02 0.98907E-02 0.99466E-02 0.97103E-02 0.98875E-02 0.10684E-01 0.11996E-01
 0.13685E-01 0.15409E-01 0.16389E-01 0.15753E-01 0.13238E-01 0.94376E-02 0.53206E-02 0.16315E-02 -.12533E-02 -.31320E-02
 -.38893E-02 -.36034E-02 -.26063E-02 -.13657E-02 -.29854E-03 0.37108E-03 0.67735E-03 0.86014E-03 0.11586E-02 0.15750E-02
 0.18501E-02 0.17282E-02 0.12697E-02 0.85603E-03 0.81877E-03 0.10710E-02 0.12047E-02 0.10200E-02 0.84928E-03 0.11625E-02
 0.16532E-02 0.20599E-02 0.17155E-02 0.10268E-02 0.87402E-03 0.14966E-02 0.22409E-02 0.24625E-02 0.22897E-02 0.22945E-02
 0.26934E-02 0.31698E-02 0.33457E-02 0.31566E-02 0.28362E-02 0.27991E-02 0.35072E-02 0.51297E-02 0.72110E-02 0.88850E-02
 0.96017E-02 0.96057E-02 0.97409E-02 0.11048E-01 0.14627E-01 0.21391E-01 0.31180E-01 0.41810E-01 0.49365E-01 0.50137E-01
 0.42891E-01 0.29656E-01 0.14511E-01 0.13842E-02 -.75424E-02 -.12048E-01 -.13039E-01 -.11637E-01 -.88419E-02 -.56197E-02
 -.28548E-02 -.10464E-02 -.12540E-03 0.32914E-03 0.70043E-03 0.11261E-02 0.15145E-02 0.16639E-02 0.14648E-02 0.10940E-02
 0.91439E-03 0.10547E-02 0.12084E-02 0.10611E-02 0.82516E-03 0.10162E-02 0.14324E-02 0.18181E-02 0.15415E-02 0.94895E-03
 0.87322E-03 0.15513E-02 0.23477E-02 0.26274E-02 0.24953E-02 0.24589E-02 0.26789E-02 0.28799E-02 0.28418E-02 0.26750E-02
 0.26644E-02 0.30900E-02 0.41503E-02 0.57776E-02 0.74832E-02 0.86181E-02 0.89375E-02 0.89531E-02 0.10016E-01 0.14468E-01
 0.25490E-01 0.45592E-01 0.73785E-01 0.10367     0.12499     0.12859     0.11155     0.78974E-01 0.41214E-01 0.85552E-02
 -.13141E-01 -.23470E-01 -.25397E-01 -.22397E-01 -.17030E-01 -.11107E-01 -.60686E-02 -.27310E-02 -.98193E-03 -.13340E-03
 0.39231E-03 0.80439E-03 0.11346E-02 0.13694E-02 0.14321E-02 0.12986E-02 0.11396E-02 0.11360E-02 0.11767E-02 0.10200E-02
 0.78032E-03 0.89315E-03 0.12419E-02 0.15555E-02 0.13101E-02 0.82216E-03 0.86514E-03 0.16422E-02 0.24823E-02 0.27162E-02
 0.24795E-02 0.23617E-02 0.25435E-02 0.26832E-02 0.25608E-02 0.24461E-02 0.27678E-02 0.36858E-02 0.50590E-02 0.65908E-02
 0.78750E-02 0.84990E-02 0.84061E-02 0.84886E-02 0.11363E-01 0.21982E-01 0.46816E-01 0.90265E-01 0.14932     0.21063    
 0.25404     0.26205     0.22944     0.16634     0.92927E-01 0.29262E-01 -.13102E-01 -.33301E-01 -.37391E-01 -.32715E-01
 -.24539E-01 -.15909E-01 -.86866E-02 -.38794E-02 -.13871E-02 -.29147E-03 0.28837E-03 0.70625E-03 0.10044E-02 0.12243E-02
 0.13896E-02 0.14498E-02 0.14055E-02 0.13371E-02 0.12331E-02 0.99909E-03 0.74751E-03 0.81039E-03 0.10121E-02 0.12547E-02
 0.10867E-02 0.76557E-03 0.91933E-03 0.16830E-02 0.24378E-02 0.25992E-02 0.23480E-02 0.22658E-02 0.24729E-02 0.25633E-02
 0.23651E-02 0.23333E-02 0.30193E-02 0.44262E-02 0.60795E-02 0.75170E-02 0.84593E-02 0.86663E-02 0.81869E-02 0.84993E-02
 0.14210E-01 0.33938E-01 0.78239E-01 0.15334     0.25301     0.35481     0.42625     0.43968     0.38728     0.28573    
 0.16752     0.64786E-01 -.39203E-02 -.37135E-01 -.44699E-01 -.38850E-01 -.28390E-01 -.17867E-01 -.93501E-02 -.37501E-02
 -.94978E-03 0.73678E-04 0.47965E-03 0.83815E-03 0.11585E-02 0.13530E-02 0.14553E-02 0.15233E-02 0.15609E-02 0.15346E-02
 0.13784E-02 0.10616E-02 0.74228E-03 0.71158E-03 0.78163E-03 0.99368E-03 0.93367E-03 0.77883E-03 0.97388E-03 0.15999E-02
 0.21988E-02 0.23624E-02 0.22543E-02 0.22958E-02 0.25020E-02 0.25066E-02 0.22608E-02 0.23344E-02 0.33056E-02 0.50557E-02
 0.68973E-02 0.82561E-02 0.89379E-02 0.88374E-02 0.81372E-02 0.89889E-02 0.18137E-01 0.48030E-01 0.11330     0.22163    
 0.36305     0.50570     0.60492     0.62343     0.55117     0.41146     0.24902     0.10787     0.13272E-01 -.32957E-01
 -.44512E-01 -.38430E-01 -.26930E-01 -.15942E-01 -.75272E-02 -.22104E-02 0.29748E-03 0.10022E-02 0.10967E-02 0.12491E-02
 0.14669E-02 0.15536E-02 0.15066E-02 0.14836E-02 0.15603E-02 0.16242E-02 0.14887E-02 0.11100E-02 0.70434E-03 0.57977E-03
 0.68920E-03 0.88585E-03 0.86389E-03 0.78055E-03 0.97495E-03 0.14958E-02 0.20067E-02 0.22177E-02 0.22398E-02 0.23530E-02
 0.25409E-02 0.25259E-02 0.23141E-02 0.24449E-02 0.34697E-02 0.52703E-02 0.71136E-02 0.83602E-02 0.88556E-02 0.86308E-02
 0.80198E-02 0.96383E-02 0.21730E-01 0.59560E-01 0.14076     0.27395     0.44605     0.61818     0.73700     0.75868    
 0.67195     0.50511     0.31173     0.14424     0.32324E-01 -.22472E-01 -.36962E-01 -.31577E-01 -.20682E-01 -.10888E-01
 -.39744E-02 0.91105E-04 0.18777E-02 0.22506E-02 0.20986E-02 0.19360E-02 0.18148E-02 0.16275E-02 0.14133E-02 0.13421E-02
 0.14705E-02 0.16089E-02 0.14895E-02 0.10720E-02 0.63488E-03 0.50334E-03 0.75542E-03 0.92556E-03 0.86620E-03 0.77737E-03
 0.99304E-03 0.15316E-02 0.20486E-02 0.22589E-02 0.22641E-02 0.23477E-02 0.25385E-02 0.25876E-02 0.24386E-02 0.25236E-02
 0.33670E-02 0.49230E-02 0.65322E-02 0.75917E-02 0.80143E-02 0.79268E-02 0.76844E-02 0.99082E-02 0.23173E-01 0.63611E-01
 0.14986     0.29075     0.47209     0.65267     0.77666     0.79859     0.70732     0.53307     0.33226     0.15960    
 0.45346E-01 -.10017E-01 -.24875E-01 -.20669E-01 -.11902E-01 -.47231E-02 -.23861E-03 0.21481E-02 0.31807E-02 0.34110E-02
 0.31948E-02 0.27323E-02 0.21527E-02 0.15977E-02 0.12343E-02 0.11761E-02 0.13652E-02 0.15439E-02 0.14362E-02 0.10291E-02
 0.62848E-03 0.54803E-03 0.86061E-03 0.10333E-02 0.95197E-03 0.83706E-03 0.10749E-02 0.16864E-02 0.22492E-02 0.24076E-02
 0.22933E-02 0.22892E-02 0.24807E-02 0.25818E-02 0.24489E-02 0.24348E-02 0.30206E-02 0.41857E-02 0.53927E-02 0.62188E-02
 0.67072E-02 0.69732E-02 0.71728E-02 0.94536E-02 0.21486E-01 0.58054E-01 0.13643     0.26499     0.43081     0.59600    
 0.70906     0.72829     0.64392     0.48452     0.30251     0.14795     0.47525E-01 0.17541E-03 -.12053E-01 -.89964E-02
 -.32589E-02 0.58480E-03 0.24393E-02 0.33294E-02 0.39010E-02 0.42283E-02 0.41099E-02 0.34522E-02 0.24774E-02 0.15987E-02
 0.11233E-02 0.10889E-02 0.13087E-02 0.14966E-02 0.14173E-02 0.10636E-02 0.70529E-03 0.64273E-03 0.94115E-03 0.11924E-02
 0.11252E-02 0.93347E-03 0.11171E-02 0.17844E-02 0.24279E-02 0.25487E-02 0.22780E-02 0.21311E-02 0.22814E-02 0.24133E-02
 0.23114E-02 0.22584E-02 0.26535E-02 0.34511E-02 0.42589E-02 0.49051E-02 0.55598E-02 0.62303E-02 0.67581E-02 0.85341E-02
 0.17423E-01 0.45129E-01 0.10568     0.20634     0.33741     0.46864     0.55841     0.57294     0.50474     0.37764    
 0.23443     0.11512     0.39928E-01 0.63548E-02 -.12710E-02 0.88671E-03 0.35096E-02 0.42020E-02 0.39099E-02 0.38329E-02
 0.42887E-02 0.48524E-02 0.48921E-02 0.41167E-02 0.28392E-02 0.17120E-02 0.11738E-02 0.11801E-02 0.14048E-02 0.15489E-02
 0.14509E-02 0.11139E-02 0.75544E-03 0.68223E-03 0.10338E-02 0.13994E-02 0.13173E-02 0.96753E-03 0.10292E-02 0.17533E-02
 0.25250E-02 0.26205E-02 0.21284E-02 0.17527E-02 0.18537E-02 0.21191E-02 0.21993E-02 0.22309E-02 0.25281E-02 0.30761E-02
 0.36482E-02 0.42547E-02 0.50992E-02 0.60741E-02 0.67866E-02 0.78611E-02 0.13018E-01 0.30142E-01 0.69135E-01 0.13576    
 0.22411     0.31354     0.37484     0.38421     0.33667     0.24953     0.15312     0.75065E-01 0.28340E-01 0.96269E-02
 0.67362E-02 0.81414E-02 0.82061E-02 0.66117E-02 0.50139E-02 0.45058E-02 0.50182E-02 0.57678E-02 0.58696E-02 0.49200E-02
 0.33254E-02 0.19713E-02 0.14265E-02 0.15285E-02 0.17505E-02 0.17572E-02 0.15084E-02 0.10918E-02 0.71157E-03 0.66952E-03
 0.11181E-02 0.15472E-02 0.14171E-02 0.92790E-03 0.91060E-03 0.17123E-02 0.25914E-02 0.26047E-02 0.18211E-02 0.11864E-02
 0.13053E-02 0.18600E-02 0.22792E-02 0.24888E-02 0.27641E-02 0.32073E-02 0.37363E-02 0.44116E-02 0.53859E-02 0.65098E-02
 0.73325E-02 0.79150E-02 0.10087E-01 0.18216E-01 0.38246E-01 0.74224E-01 0.12351     0.17440     0.20956     0.21473    
 0.18708     0.13724     0.83457E-01 0.41866E-01 0.19267E-01 0.12364E-01 0.12778E-01 0.13417E-01 0.11769E-01 0.89418E-02
 0.68224E-02 0.62164E-02 0.67370E-02 0.74201E-02 0.72985E-02 0.59688E-02 0.39715E-02 0.24025E-02 0.19027E-02 0.21328E-02
 0.23254E-02 0.21045E-02 0.15956E-02 0.10366E-02 0.64195E-03 0.66004E-03 0.11032E-02 0.15255E-02 0.13886E-02 0.90040E-03
 0.91415E-03 0.17733E-02 0.26563E-02 0.25270E-02 0.14929E-02 0.69423E-03 0.90719E-03 0.17809E-02 0.25422E-02 0.29516E-02
 0.32830E-02 0.37383E-02 0.43004E-02 0.50100E-02 0.59851E-02 0.71182E-02 0.80225E-02 0.84771E-02 0.90677E-02 0.11625E-01
 0.18999E-01 0.33597E-01 0.54907E-01 0.77853E-01 0.94190E-01 0.96882E-01 0.84517E-01 0.62372E-01 0.39372E-01 0.23126E-01
 0.16280E-01 0.16224E-01 0.17960E-01 0.17813E-01 0.15274E-01 0.12051E-01 0.98866E-02 0.92710E-02 0.95941E-02 0.98275E-02
 0.90827E-02 0.71249E-02 0.46804E-02 0.29520E-02 0.25250E-02 0.28593E-02 0.29951E-02 0.25382E-02 0.17613E-02 0.10455E-02
 0.61581E-03 0.64339E-03 0.10091E-02 0.14011E-02 0.13085E-02 0.92431E-03 0.10228E-02 0.18880E-02 0.27002E-02 0.24601E-02
 0.13270E-02 0.50566E-03 0.81768E-03 0.18882E-02 0.28622E-02 0.34320E-02 0.38553E-02 0.43383E-02 0.48587E-02 0.54625E-02
 0.63076E-02 0.73606E-02 0.83136E-02 0.88869E-02 0.91171E-02 0.94624E-02 0.10855E-01 0.14465E-01 0.20779E-01 0.28527E-01
 0.34782E-01 0.36707E-01 0.33595E-01 0.27430E-01 0.21556E-01 0.18617E-01 0.19118E-01 0.21381E-01 0.22864E-01 0.22001E-01
 0.19167E-01 0.16025E-01 0.13981E-01 0.13254E-01 0.13092E-01 0.12497E-01 0.10811E-01 0.81002E-02 0.52591E-02 0.34467E-02
 0.30941E-02 0.35110E-02 0.36327E-02 0.30298E-02 0.20359E-02 0.11416E-02 0.62130E-03 0.60159E-03 0.97652E-03 0.13260E-02
 0.12559E-02 0.95683E-03 0.11127E-02 0.19498E-02 0.26997E-02 0.24471E-02 0.13622E-02 0.59902E-03 0.95276E-03 0.20718E-02
 0.31221E-02 0.37704E-02 0.42161E-02 0.46229E-02 0.49782E-02 0.53869E-02 0.60707E-02 0.70276E-02 0.79749E-02 0.86729E-02
 0.90967E-02 0.93253E-02 0.95934E-02 0.10498E-01 0.12731E-01 0.16264E-01 0.19987E-01 0.22488E-01 0.23246E-01 0.22973E-01
 0.22892E-01 0.23791E-01 0.25554E-01 0.27244E-01 0.27650E-01 0.26150E-01 0.23282E-01 0.20365E-01 0.18405E-01 0.17366E-01
 0.16431E-01 0.14765E-01 0.12055E-01 0.86763E-02 0.55745E-02 0.37488E-02 0.34715E-02 0.39896E-02 0.41880E-02 0.35537E-02
 0.24001E-02 0.13163E-02 0.68180E-03 0.61517E-03 0.10293E-02 0.12857E-02 0.12050E-02 0.97098E-03 0.11559E-02 0.19305E-02
 0.26213E-02 0.24291E-02 0.14939E-02 0.83137E-03 0.11710E-02 0.22310E-02 0.32569E-02 0.38910E-02 0.42538E-02 0.44913E-02
 0.46557E-02 0.49189E-02 0.55082E-02 0.63819E-02 0.72300E-02 0.78633E-02 0.84446E-02 0.93861E-02 0.11287E-01 0.14908E-01
 0.20686E-01 0.27909E-01 0.34600E-01 0.38694E-01 0.39499E-01 0.38010E-01 0.35925E-01 0.34467E-01 0.33878E-01 0.33554E-01
 0.32569E-01 0.30406E-01 0.27448E-01 0.24651E-01 0.22621E-01 0.21058E-01 0.19152E-01 0.16354E-01 0.12744E-01 0.89136E-02
 0.57281E-02 0.39644E-02 0.37640E-02 0.43713E-02 0.46618E-02 0.40486E-02 0.28090E-02 0.16016E-02 0.88488E-03 0.75915E-03
 0.10058E-02 0.11210E-02 0.10695E-02 0.96926E-03 0.11923E-02 0.18396E-02 0.24151E-02 0.23188E-02 0.16397E-02 0.11527E-02
 0.14538E-02 0.23598E-02 0.32692E-02 0.38466E-02 0.41489E-02 0.43066E-02 0.44032E-02 0.46028E-02 0.50841E-02 0.57780E-02
 0.63756E-02 0.67381E-02 0.73274E-02 0.93477E-02 0.14529E-01 0.24363E-01 0.38758E-01 0.55002E-01 0.68416E-01 0.74858E-01
 0.73219E-01 0.65834E-01 0.56655E-01 0.48896E-01 0.43762E-01 0.40625E-01 0.38085E-01 0.35175E-01 0.31957E-01 0.29072E-01
 0.26773E-01 0.24526E-01 0.21575E-01 0.17699E-01 0.13344E-01 0.92371E-02 0.60923E-02 0.44273E-02 0.42463E-02 0.48217E-02
 0.50913E-02 0.44688E-02 0.32067E-02 0.19635E-02 0.11866E-02 0.93102E-03 0.81592E-03 0.80630E-03 0.83086E-03 0.91226E-03
 0.11766E-02 0.16544E-02 0.20893E-02 0.21369E-02 0.18142E-02 0.15754E-02 0.18311E-02 0.25184E-02 0.32624E-02 0.38294E-02
 0.42452E-02 0.45575E-02 0.47208E-02 0.47573E-02 0.48301E-02 0.50285E-02 0.52044E-02 0.52970E-02 0.60930E-02 0.98203E-02
 0.19747E-01 0.38349E-01 0.64739E-01 0.93361E-01 0.11574     0.12483     0.11898     0.10255     0.82885E-01 0.66159E-01
 0.54952E-01 0.48436E-01 0.44305E-01 0.40759E-01 0.37326E-01 0.34282E-01 0.31593E-01 0.28583E-01 0.24588E-01 0.19679E-01
 0.14611E-01 0.10233E-01 0.70969E-02 0.54400E-02 0.51170E-02 0.54670E-02 0.55586E-02 0.48396E-02 0.35164E-02 0.22125E-02
 0.13514E-02 0.94541E-03 0.59514E-03 0.51574E-03 0.57449E-03 0.76917E-03 0.10529E-02 0.14021E-02 0.17666E-02 0.20108E-02
 0.20565E-02 0.20542E-02 0.22624E-02 0.27548E-02 0.33821E-02 0.40237E-02 0.46779E-02 0.52284E-02 0.53356E-02 0.47837E-02
 0.38511E-02 0.30868E-02 0.27429E-02 0.28710E-02 0.45113E-02 0.10892E-01 0.26830E-01 0.55681E-01 0.95491E-01 0.13751    
 0.16918     0.18042     0.16913     0.14200     0.11019     0.83267E-01 0.65393E-01 0.55517E-01 0.50235E-01 0.46652E-01
 0.43512E-01 0.40598E-01 0.37620E-01 0.33871E-01 0.28840E-01 0.22861E-01 0.16976E-01 0.12165E-01 0.88573E-02 0.70184E-02
 0.63646E-02 0.63326E-02 0.61330E-02 0.52083E-02 0.36860E-02 0.22012E-02 0.12419E-02 0.79343E-03 0.48815E-03 0.37042E-03
 0.40449E-03 0.63730E-03 0.93685E-03 0.12346E-02 0.16074E-02 0.20481E-02 0.23854E-02 0.25447E-02 0.27044E-02 0.30714E-02
 0.36580E-02 0.43816E-02 0.51481E-02 0.56156E-02 0.51177E-02 0.32670E-02 0.65027E-03 -.14804E-02 -.23079E-02 -.16577E-02
 0.16087E-02 0.11404E-01 0.33655E-01 0.72185E-01 0.12386     0.17710     0.21596     0.22799     0.21089     0.17352    
 0.13049     0.94466E-01 0.71041E-01 0.58963E-01 0.53738E-01 0.51284E-01 0.49412E-01 0.47294E-01 0.44388E-01 0.40054E-01
 0.34018E-01 0.26912E-01 0.20063E-01 0.14628E-01 0.10973E-01 0.88351E-02 0.77875E-02 0.73344E-02 0.67984E-02 0.56007E-02
 0.37985E-02 0.20786E-02 0.10419E-02 0.64865E-03 0.44927E-03 0.31066E-03 0.35975E-03 0.65902E-03 0.10039E-02 0.12897E-02
 0.16843E-02 0.22743E-02 0.28226E-02 0.30885E-02 0.31890E-02 0.34338E-02 0.39491E-02 0.46206E-02 0.51568E-02 0.49277E-02
 0.30363E-02 -.84094E-03 -.56060E-02 -.92452E-02 -.10394E-01 -.87806E-02 -.33591E-02 0.98955E-02 0.37167E-01 0.82158E-01
 0.14079     0.19984     0.24160     0.25251     0.23045     0.18580     0.13546     0.94047E-01 0.68082E-01 0.56092E-01
 0.52720E-01 0.52858E-01 0.53391E-01 0.52853E-01 0.50490E-01 0.45821E-01 0.38908E-01 0.30723E-01 0.22894E-01 0.16780E-01
 0.12753E-01 0.10377E-01 0.90630E-02 0.83082E-02 0.75097E-02 0.60963E-02 0.40806E-02 0.21672E-02 0.10251E-02 0.61453E-03
 0.40459E-03 0.28352E-03 0.41241E-03 0.80165E-03 0.11979E-02 0.15019E-02 0.19445E-02 0.26575E-02 0.33564E-02 0.36892E-02
 0.37101E-02 0.37771E-02 0.40984E-02 0.45159E-02 0.44952E-02 0.30963E-02 -.68181E-03 -.68692E-02 -.13752E-01 -.18674E-01
 -.19875E-01 -.17049E-01 -.94423E-02 0.64048E-02 0.35947E-01 0.82219E-01 0.14079     0.19846     0.23783     0.24578    
 0.22071     0.17357     0.12183     0.80442E-01 0.55973E-01 0.46750E-01 0.46986E-01 0.50902E-01 0.54627E-01 0.56150E-01
 0.54608E-01 0.49805E-01 0.42224E-01 0.33202E-01 0.24625E-01 0.18002E-01 0.13721E-01 0.11251E-01 0.98975E-02 0.91158E-02
 0.82958E-02 0.68331E-02 0.46919E-02 0.25759E-02 0.12156E-02 0.64211E-03 0.44126E-03 0.35858E-03 0.50933E-03 0.88099E-03
 0.12797E-02 0.16646E-02 0.22471E-02 0.30884E-02 0.38562E-02 0.41865E-02 0.41245E-02 0.40234E-02 0.41002E-02 0.41537E-02
 0.34849E-02 0.96218E-03 -.44016E-02 -.12312E-01 -.20577E-01 -.26145E-01 -.27043E-01 -.22990E-01 -.13718E-01 0.31210E-02
 0.31549E-01 0.73666E-01 0.12535     0.17501     0.20742     0.21127     0.18572     0.14129     0.94200E-01 0.58080E-01
 0.38741E-01 0.34369E-01 0.39201E-01 0.47226E-01 0.54097E-01 0.57465E-01 0.56545E-01 0.51564E-01 0.43503E-01 0.34038E-01
 0.25166E-01 0.18361E-01 0.13970E-01 0.11493E-01 0.10283E-01 0.97591E-02 0.91702E-02 0.77669E-02 0.54761E-02 0.30830E-02
 0.14496E-02 0.71115E-03 0.63618E-03 0.54993E-03 0.60021E-03 0.83248E-03 0.11836E-02 0.16671E-02 0.24076E-02 0.33448E-02
 0.41188E-02 0.44185E-02 0.43212E-02 0.41521E-02 0.40763E-02 0.38464E-02 0.27406E-02 -.32028E-03 -.61701E-02 -.14347E-01
 -.22591E-01 -.27840E-01 -.28073E-01 -.23061E-01 -.13099E-01 0.28473E-02 0.27195E-01 0.61190E-01 0.10152     0.13911    
 0.16210     0.16188     0.13841     0.10086     0.62799E-01 0.35416E-01 0.23287E-01 0.24534E-01 0.33751E-01 0.45071E-01
 0.54032E-01 0.58241E-01 0.57201E-01 0.51709E-01 0.43289E-01 0.33834E-01 0.25178E-01 0.18516E-01 0.14112E-01 0.11627E-01
 0.10573E-01 0.10318E-01 0.99136E-02 0.84858E-02 0.60099E-02 0.34051E-02 0.16378E-02 0.87283E-03 0.84907E-03 0.72104E-03
 0.65639E-03 0.77532E-03 0.10812E-02 0.15628E-02 0.22873E-02 0.32098E-02 0.40284E-02 0.44252E-02 0.44065E-02 0.42566E-02
 0.41480E-02 0.38466E-02 0.27119E-02 -.83410E-04 -.50801E-02 -.11820E-01 -.18455E-01 -.22396E-01 -.21781E-01 -.16380E-01
 -.69034E-02 0.65751E-02 0.25144E-01 0.49473E-01 0.77260E-01 0.10219     0.11602     0.11303     0.93770E-01 0.65422E-01
 0.38238E-01 0.20577E-01 0.15717E-01 0.21812E-01 0.33996E-01 0.46838E-01 0.56111E-01 0.59674E-01 0.57524E-01 0.51139E-01
 0.42542E-01 0.33578E-01 0.25579E-01 0.19274E-01 0.14875E-01 0.12271E-01 0.11117E-01 0.10728E-01 0.10116E-01 0.85023E-02
 0.59690E-02 0.34213E-02 0.17438E-02 0.10524E-02 0.94373E-03 0.82257E-03 0.69560E-03 0.76416E-03 0.10472E-02 0.14235E-02
 0.19243E-02 0.26855E-02 0.36012E-02 0.42916E-02 0.45223E-02 0.44650E-02 0.43879E-02 0.41946E-02 0.33950E-02 0.14637E-02
 -.18032E-02 -.60263E-02 -.10047E-01 -.12122E-01 -.10780E-01 -.57234E-02 0.22697E-02 0.12506E-01 0.25198E-01 0.40701E-01
 0.57701E-01 0.72335E-01 0.79534E-01 0.75927E-01 0.62241E-01 0.43467E-01 0.26608E-01 0.17432E-01 0.18146E-01 0.27079E-01
 0.40041E-01 0.52244E-01 0.59947E-01 0.61496E-01 0.57529E-01 0.50205E-01 0.41844E-01 0.33909E-01 0.26935E-01 0.21092E-01
 0.16576E-01 0.13527E-01 0.11765E-01 0.10705E-01 0.95650E-02 0.77862E-02 0.54245E-02 0.31435E-02 0.16508E-02 0.10710E-02
 0.10970E-02 0.10364E-02 0.78680E-03 0.71906E-03 0.96397E-03 0.12766E-02 0.15431E-02 0.20215E-02 0.28956E-02 0.38784E-02
 0.45238E-02 0.47556E-02 0.48135E-02 0.47687E-02 0.43822E-02 0.34345E-02 0.19721E-02 0.25947E-03 -.12040E-02 -.15598E-02
 0.14715E-03 0.42771E-02 0.10297E-01 0.17415E-01 0.25410E-01 0.34468E-01 0.44075E-01 0.52269E-01 0.56286E-01 0.54233E-01
 0.46543E-01 0.36191E-01 0.27520E-01 0.24285E-01 0.27980E-01 0.37290E-01 0.48818E-01 0.58528E-01 0.63307E-01 0.62131E-01
 0.56321E-01 0.48537E-01 0.41062E-01 0.34685E-01 0.29026E-01 0.23653E-01 0.18729E-01 0.14732E-01 0.11899E-01 0.10010E-01
 0.85113E-02 0.68258E-02 0.47535E-02 0.27107E-02 0.13868E-02 0.10120E-02 0.15522E-02 0.14630E-02 0.99820E-03 0.71099E-03
 0.88629E-03 0.12189E-02 0.13718E-02 0.15065E-02 0.20312E-02 0.30137E-02 0.40946E-02 0.48981E-02 0.53059E-02 0.53650E-02
 0.51649E-02 0.48615E-02 0.46429E-02 0.46003E-02 0.47837E-02 0.54619E-02 0.71474E-02 0.10176E-01 0.14331E-01 0.19059E-01
 0.24042E-01 0.29373E-01 0.35054E-01 0.40406E-01 0.44108E-01 0.44948E-01 0.42760E-01 0.38873E-01 0.35713E-01 0.35692E-01
 0.39955E-01 0.47676E-01 0.56271E-01 0.62467E-01 0.63841E-01 0.60063E-01 0.53035E-01 0.45592E-01 0.39623E-01 0.35115E-01
 0.30827E-01 0.25782E-01 0.20144E-01 0.14915E-01 0.11049E-01 0.87611E-02 0.74310E-02 0.61132E-02 0.43303E-02 0.24876E-02
 0.13889E-02 0.12825E-02 0.20948E-02 0.18172E-02 0.13008E-02 0.10154E-02 0.11555E-02 0.14371E-02 0.14860E-02 0.13071E-02
 0.13205E-02 0.19611E-02 0.32370E-02 0.46504E-02 0.55681E-02 0.57344E-02 0.54592E-02 0.52989E-02 0.55654E-02 0.61729E-02
 0.69289E-02 0.78807E-02 0.93195E-02 0.11487E-01 0.14341E-01 0.17608E-01 0.21069E-01 0.24771E-01 0.28957E-01 0.33689E-01
 0.38477E-01 0.42351E-01 0.44492E-01 0.44968E-01 0.44942E-01 0.46058E-01 0.49395E-01 0.54603E-01 0.59800E-01 0.62437E-01
 0.60786E-01 0.55151E-01 0.47777E-01 0.41343E-01 0.37128E-01 0.34337E-01 0.31075E-01 0.26067E-01 0.19690E-01 0.13599E-01
 0.93846E-02 0.73908E-02 0.66289E-02 0.57841E-02 0.43576E-02 0.28773E-02 0.20756E-02 0.20138E-02 0.21610E-02 0.17212E-02
 0.15154E-02 0.16221E-02 0.18625E-02 0.19905E-02 0.18607E-02 0.14910E-02 0.11514E-02 0.13427E-02 0.24024E-02 0.40128E-02
 0.53073E-02 0.56633E-02 0.53081E-02 0.49988E-02 0.52021E-02 0.57867E-02 0.64621E-02 0.72506E-02 0.84298E-02 0.10192E-01
 0.12500E-01 0.15195E-01 0.18145E-01 0.21386E-01 0.25236E-01 0.30118E-01 0.36025E-01 0.42111E-01 0.47052E-01 0.50023E-01