unknown system                          
   1.00000000000000     
     6.000000    0.000000    0.000000
     0.000000    6.000000    0.000000
     0.000000    0.000000    6.000000
   H    C    O 
     4     1     1
Direct
  0.333923  0.659914  0.500000
  0.665292  0.321720  0.500000
  0.591262  0.677855  0.650119
  0.591262  0.677855  0.349881
  0.509606  0.608822  0.500000
  0.510145  0.369194  0.500000
 
   56   56   56
 0.27850001997E-03 0.26136702230E-03 0.30875385903E-03 0.47204117951E-03 0.91651327630E-03
 0.16984661089E-02 0.25220175086E-02 0.28655597214E-02 0.24653915588E-02 0.16069013111E-02
 0.85200179995E-03 0.54917416750E-03 0.69435550319E-03 0.11515738401E-02 0.18015024626E-02
 0.24798189305E-02 0.29924518958E-02 0.33198740398E-02 0.37042962947E-02 0.44168345563E-02
 0.54795707044E-02 0.66893171109E-02 0.78567643376E-02 0.89322481891E-02 0.99408926869E-02
 0.10907208842E-01 0.11845463445E-01 0.12734816647E-01 0.13482161323E-01 0.13972386689E-01
 0.14169893853E-01 0.14118118982E-01 0.13840531397E-01 0.13311678380E-01 0.12531566130E-01
 0.11551868539E-01 0.10416013311E-01 0.91658481749E-02 0.79382697308E-02 0.69352644683E-02
 0.62045655114E-02 0.55361340439E-02 0.46994941752E-02 0.37382088641E-02 0.29096598600E-02
 0.23733659010E-02 0.20921740131E-02 0.20332159747E-02 0.22611874360E-02 0.27240421547E-02
 0.30930063347E-02 0.29932409928E-02 0.23726130396E-02 0.15362472148E-02 0.83923336605E-03
 0.43402278953E-03 0.40292333638E-03 0.28340327001E-03 0.34332189926E-03 0.65504870928E-03
 0.11421323687E-02 0.16294602051E-02 0.19399931890E-02 0.19544112481E-02 0.16554321344E-02
 0.11708511629E-02 0.75204544337E-03 0.64988559165E-03 0.96478609060E-03 0.15886049681E-02
 0.22760776859E-02 0.27920794095E-02 0.30489372898E-02 0.31528015731E-02 0.33178170104E-02
 0.37053491330E-02 0.43277167774E-02 0.50985756293E-02 0.59537835815E-02 0.68985382889E-02
 0.79443188430E-02 0.90309545841E-02 0.10025466175E-01 0.10788816572E-01 0.11248570247E-01
 0.11429549859E-01 0.11421043878E-01 0.11292076603E-01 0.11019825594E-01 0.10509121667E-01
 0.96983997236E-02 0.86477775638E-02 0.75263025114E-02 0.65264008443E-02 0.57785972151E-02
 0.52947918613E-02 0.49483155840E-02 0.45317738969E-02 0.38996457625E-02 0.30903902788E-02
 0.23019172430E-02 0.17459280042E-02 0.15324933999E-02 0.16554760910E-02 0.20048069619E-02
 0.23624317033E-02 0.24675508713E-02 0.21906872955E-02 0.16557257195E-02 0.11318499851E-02
 0.78544142273E-03 0.57635196150E-03 0.72557424413E-03 0.64572323958E-03 0.74630635092E-03
 0.10201579028E-02 0.12398888157E-02 0.12273846265E-02 0.10618463673E-02 0.93674129863E-03
 0.89531108306E-03 0.84774445108E-03 0.82317055552E-03 0.10318157797E-02 0.15998200514E-02
 0.23480492431E-02 0.29384960892E-02 0.31973522562E-02 0.32164525084E-02 0.31817193697E-02
 0.32068277400E-02 0.33310736761E-02 0.35744811835E-02 0.39464100359E-02 0.44520927409E-02
 0.51225429409E-02 0.59853785692E-02 0.69628600664E-02 0.78398501252E-02 0.83950077181E-02
 0.85669208097E-02 0.84728252470E-02 0.82823555281E-02 0.80896036338E-02 0.78680502004E-02
 0.75009056707E-02 0.68766828914E-02 0.60206525205E-02 0.51433581999E-02 0.45090300223E-02
 0.42268531521E-02 0.41819278582E-02 0.41585964306E-02 0.39896064299E-02 0.35993477334E-02
 0.29957366384E-02 0.22912353388E-02 0.16939254768E-02 0.13898387450E-02 0.13969083286E-02
 0.15470165492E-02 0.16172716663E-02 0.14850354222E-02 0.11948261932E-02 0.91073934399E-03
 0.77937183343E-03 0.79415757713E-03 0.80851022301E-03 0.12430357564E-02 0.13672962410E-02
 0.13527892321E-02 0.12366540067E-02 0.10212958962E-02 0.72900129608E-03 0.47166684799E-03
 0.37134531005E-03 0.44154729631E-03 0.63917003997E-03 0.10065653650E-02 0.16319941909E-02
 0.24379230560E-02 0.31321277405E-02 0.34639802106E-02 0.34749158687E-02 0.34170066687E-02
 0.34658230995E-02 0.35948042055E-02 0.36999563477E-02 0.37443795342E-02 0.37697455971E-02
 0.38564836676E-02 0.41062125668E-02 0.45836625790E-02 0.52100980828E-02 0.57540482558E-02
 0.59938232525E-02 0.58952002870E-02 0.56129818514E-02 0.53419917695E-02 0.51850849011E-02
 0.51174905288E-02 0.50179787718E-02 0.47542964637E-02 0.43069171707E-02 0.38269896923E-02
 0.35319514624E-02 0.35206654416E-02 0.36996080361E-02 0.38730295453E-02 0.38703598524E-02
 0.36107234863E-02 0.31280283162E-02 0.25661722451E-02 0.20904097854E-02 0.17519980467E-02
 0.14668599218E-02 0.11551985281E-02 0.85536675731E-03 0.65504006214E-03 0.56316004691E-03
 0.52913906304E-03 0.55975561268E-03 0.71697533059E-03 0.98747293524E-03 0.16155499003E-02
 0.18764399554E-02 0.17427904885E-02 0.12778262291E-02 0.75012020284E-03 0.39993026239E-03
 0.26352493980E-03 0.23746562316E-03 0.29714720958E-03 0.59108230951E-03 0.12670845915E-02
 0.22228010686E-02 0.30986042267E-02 0.35629449988E-02 0.35974896730E-02 0.34896013643E-02
 0.35622416663E-02 0.39163455591E-02 0.43899911045E-02 0.47117968905E-02 0.47014839788E-02
 0.43896002394E-02 0.39928354213E-02 0.37593503948E-02 0.37901511846E-02 0.39762303349E-02
 0.40990072402E-02 0.40022027991E-02 0.36962911928E-02 0.33345281886E-02 0.30999367084E-02
 0.30873009724E-02 0.32548343445E-02 0.34714920607E-02 0.36128580861E-02 0.36288936443E-02
 0.35522697113E-02 0.34732696830E-02 0.34951769613E-02 0.36534193084E-02 0.38394532307E-02
 0.38450563061E-02 0.35522445403E-02 0.30788817371E-02 0.26703219979E-02 0.24211449936E-02
 0.21642316655E-02 0.16896626897E-02 0.10338172400E-02 0.47371316833E-03 0.23451209338E-03
 0.27688425012E-03 0.40750565915E-03 0.53801922217E-03 0.75815589127E-03 0.11537468972E-02
 0.14645103517E-02 0.16651776188E-02 0.16670952509E-02 0.13003499152E-02 0.72316634562E-03
 0.31568777935E-03 0.24414043431E-03 0.33851755299E-03 0.46697949265E-03 0.80737065598E-03
 0.15654044318E-02 0.25559922816E-02 0.32942522816E-02 0.35013727185E-02 0.33699859453E-02
 0.33247977290E-02 0.36502393722E-02 0.43460758731E-02 0.51696197252E-02 0.57405268391E-02
 0.57470487546E-02 0.51997704668E-02 0.44597465843E-02 0.39330797200E-02 0.37426509689E-02
 0.37191430740E-02 0.36390895471E-02 0.33997382571E-02 0.30312342829E-02 0.26601873981E-02
 0.24583016683E-02 0.25294169393E-02 0.28191675626E-02 0.31781296692E-02 0.34990813486E-02
 0.37355388012E-02 0.38343202799E-02 0.37735204138E-02 0.36620623042E-02 0.36534102756E-02
 0.37087467910E-02 0.35862630740E-02 0.31639007370E-02 0.26553970027E-02 0.23623184972E-02
 0.22829064720E-02 0.21284504953E-02 0.17033971863E-02 0.11107280315E-02 0.57594200434E-03
 0.23346977839E-03 0.13353177497E-03 0.29420508103E-03 0.63801438819E-03 0.98916594709E-03
 0.12458264100E-02 0.91361797078E-03 0.98007150995E-03 0.12547845411E-02 0.12565327142E-02
 0.83119902658E-03 0.41208034295E-03 0.40231937545E-03 0.67553737542E-03 0.92597970285E-03
 0.12091954207E-02 0.17823893844E-02 0.25592211208E-02 0.31037964314E-02 0.31870223081E-02
 0.30713805170E-02 0.31811420661E-02 0.36996459043E-02 0.45372065947E-02 0.54587584395E-02
 0.61235945420E-02 0.62089993473E-02 0.57064976753E-02 0.50236700430E-02 0.46383610443E-02
 0.46781593382E-02 0.49146925385E-02 0.50745814696E-02 0.50292222015E-02 0.47683916884E-02
 0.43780452231E-02 0.40453076473E-02 0.39345125952E-02 0.40248646968E-02 0.41603138190E-02
 0.42414653216E-02 0.42561817165E-02 0.41590108152E-02 0.38990196061E-02 0.35793416763E-02
 0.33879377159E-02 0.33011363755E-02 0.30558842447E-02 0.25392426586E-02 0.20156190800E-02
 0.17863414968E-02 0.17778077268E-02 0.16915182916E-02 0.14423455997E-02 0.11741946645E-02
 0.91566136914E-03 0.56233849710E-03 0.23066989731E-03 0.26120442776E-03 0.70305165061E-03
 0.11095055660E-02 0.11057176162E-02 0.48315657373E-03 0.50115121817E-03 0.81855673058E-03
 0.98195467479E-03 0.79558440624E-03 0.62972857966E-03 0.84170070231E-03 0.12463387016E-02
 0.14599776301E-02 0.15222865762E-02 0.17987607119E-02 0.23642997404E-02 0.28635008271E-02
 0.30267435420E-02 0.30229778879E-02 0.31946108703E-02 0.36712719044E-02 0.43615737202E-02
 0.51151707195E-02 0.57300576349E-02 0.59720688698E-02 0.58120651457E-02 0.55844648782E-02
 0.57257002985E-02 0.63538354844E-02 0.72032655043E-02 0.79148420431E-02 0.82612366163E-02
 0.81592582876E-02 0.76691552524E-02 0.70173081425E-02 0.64635553348E-02 0.60775774179E-02
 0.57287874851E-02 0.53038513732E-02 0.48134130515E-02 0.42830418952E-02 0.37101752128E-02
 0.31822147394E-02 0.28548766136E-02 0.27044491354E-02 0.24699828111E-02 0.19964145830E-02
 0.14938796461E-02 0.12633018620E-02 0.12801236171E-02 0.12836069927E-02 0.11950289488E-02
 0.11563753240E-02 0.11689934633E-02 0.10306656981E-02 0.72971531695E-03 0.57598870184E-03
 0.73534617636E-03 0.90878251681E-03 0.76466028615E-03 0.45615921178E-03 0.51393337352E-03
 0.57718701762E-03 0.58018382314E-03 0.62154599965E-03 0.89837058568E-03 0.13947951678E-02
 0.17780663618E-02 0.17756481292E-02 0.15754579106E-02 0.16492662271E-02 0.21822352847E-02
 0.28634931185E-02 0.32846798350E-02 0.33786469428E-02 0.33850532854E-02 0.35359428800E-02
 0.39030681006E-02 0.44425212451E-02 0.50249206971E-02 0.54716047323E-02 0.57301618531E-02
 0.60289021776E-02 0.67221810437E-02 0.79239841190E-02 0.93532559827E-02 0.10547906827E-01
 0.11161197973E-01 0.11075697926E-01 0.10388754632E-01 0.93744192820E-02 0.83590003509E-02
 0.75103744536E-02 0.67570765800E-02 0.59521067525E-02 0.50664273750E-02 0.41800292737E-02
 0.33728595766E-02 0.27189110644E-02 0.23100893169E-02 0.21451076414E-02 0.20275920520E-02
 0.17341986768E-02 0.13022032803E-02 0.10047164627E-02 0.99429733882E-03 0.11158521525E-02
 0.11552171523E-02 0.11307383967E-02 0.11944425898E-02 0.13371621424E-02 0.13709978781E-02
 0.11888984096E-02 0.89000281508E-03 0.63214703032E-03 0.48623641281E-03 0.64532490157E-03
 0.75053652733E-03 0.57601039112E-03 0.37634198512E-03 0.52399145833E-03 0.10711767924E-02
 0.16863400190E-02 0.19595045470E-02 0.17725746588E-02 0.14429002128E-02 0.14938836684E-02
 0.21818827810E-02 0.32074452420E-02 0.39551351319E-02 0.40574511834E-02 0.36961266637E-02
 0.33670302208E-02 0.34358941187E-02 0.39297111744E-02 0.46313529052E-02 0.52858320163E-02
 0.57968919683E-02 0.63416722977E-02 0.72597562839E-02 0.87077470642E-02 0.10399329712E-01
 0.11753901637E-01 0.12318500433E-01 0.12021476262E-01 0.11087126446E-01 0.98396818581E-02
 0.85892745845E-02 0.75378644542E-02 0.66756543776E-02 0.58270909662E-02 0.48741987547E-02
 0.38968812263E-02 0.30560782852E-02 0.24245243562E-02 0.20031183236E-02 0.17995930217E-02
 0.17570225606E-02 0.16774263461E-02 0.14008609242E-02 0.10510594724E-02 0.91443112585E-03
 0.10385017634E-02 0.11513394035E-02 0.10785201118E-02 0.10315903393E-02 0.12735059066E-02
 0.16329812649E-02 0.16418007585E-02 0.11633572342E-02 0.61734250484E-03 0.46182125462E-03
 0.80554229033E-03 0.94452662302E-03 0.75226037582E-03 0.47100763098E-03 0.53621332618E-03
 0.10368187711E-02 0.16152052813E-02 0.18320455602E-02 0.15858415642E-02 0.12535891506E-02
 0.14369121677E-02 0.24288867149E-02 0.38319866333E-02 0.47960765222E-02 0.47661747679E-02
 0.39937891878E-02 0.32728294092E-02 0.32296671145E-02 0.39072063973E-02 0.49064396597E-02
 0.57757475086E-02 0.63253144433E-02 0.67578964601E-02 0.75207710360E-02 0.88684429264E-02
 0.10493689242E-01 0.11689115361E-01 0.11937763989E-01 0.11283746734E-01 0.10133032285E-01
 0.88599419808E-02 0.76829120261E-02 0.67271205490E-02 0.59881614409E-02 0.52875911592E-02
 0.44574437875E-02 0.35693651243E-02 0.28430634176E-02 0.23519953859E-02 0.19888004628E-02
 0.17121786237E-02 0.16088285864E-02 0.16486074434E-02 0.16004591437E-02 0.13377308817E-02
 0.10484919758E-02 0.95425906056E-03 0.96851574627E-03 0.87974644068E-03 0.77219409013E-03
 0.94043149568E-03 0.13606580070E-02 0.15784993089E-02 0.12915583435E-02 0.79751027050E-03
 0.61559396816E-03 0.95970646794E-03 0.11481670826E-02 0.99833565117E-03 0.62179123542E-03
 0.49339811510E-03 0.88261354677E-03 0.14817533106E-02 0.17100284502E-02 0.13921736234E-02
 0.10577438561E-02 0.14754496183E-02 0.28483976511E-02 0.44996744930E-02 0.54131620094E-02
 0.51198883640E-02 0.40801946528E-02 0.32587306472E-02 0.33659288575E-02 0.44178505602E-02
 0.58435048614E-02 0.69484141116E-02 0.74204109059E-02 0.75586020068E-02 0.79935900466E-02
 0.90488137718E-02 0.10342792928E-01 0.11097311299E-01 0.10852908817E-01 0.98168817512E-02
 0.85447471422E-02 0.74407015324E-02 0.66118115149E-02 0.60086865873E-02 0.55077535492E-02
 0.49267582311E-02 0.41646183415E-02 0.33574308844E-02 0.27536481324E-02 0.24057707442E-02
 0.21270214885E-02 0.18005480568E-02 0.15670751587E-02 0.15832737730E-02 0.17231184191E-02
 0.16955656341E-02 0.14071640342E-02 0.10353196137E-02 0.75594066230E-03 0.58334543796E-03
 0.51510862427E-03 0.63333813011E-03 0.92745818222E-03 0.11582306215E-02 0.10952562851E-02
 0.84710316703E-03 0.76109977004E-03 0.11937187060E-02 0.14513933987E-02 0.12085364481E-02
 0.62440066214E-03 0.35892478417E-03 0.81183587767E-03 0.15494345045E-02 0.17630277692E-02
 0.12974279598E-02 0.95269179633E-03 0.16154561018E-02 0.32380583404E-02 0.48394281886E-02
 0.54414013839E-02 0.48837526407E-02 0.38369698048E-02 0.32480398076E-02 0.37479254167E-02
 0.52901987071E-02 0.71580144676E-02 0.84512954148E-02 0.88048757021E-02 0.86750245737E-02
 0.88230186397E-02 0.95019712267E-02 0.10221080444E-01 0.10289872714E-01 0.94817768047E-02
 0.81556005353E-02 0.68749345157E-02 0.60096555978E-02 0.56019901891E-02 0.54326772281E-02
 0.51760194142E-02 0.46091918722E-02 0.37836145654E-02 0.29847419435E-02 0.24714909176E-02
 0.22432082039E-02 0.20846407143E-02 0.18354632790E-02 0.15736699549E-02 0.15029205077E-02
 0.16740868343E-02 0.18711493009E-02 0.18046771860E-02 0.13992330746E-02 0.85984879415E-03
 0.47192834993E-03 0.37609713960E-03 0.51665626406E-03 0.72450265522E-03 0.82510686244E-03
 0.75942113583E-03 0.67451872176E-03 0.81366899529E-03 0.13942287043E-02 0.17208157419E-02
 0.13281270902E-02 0.56087328591E-03 0.29023677611E-03 0.89328940793E-03 0.17280583062E-02
 0.18919622154E-02 0.13756862183E-02 0.11214148876E-02 0.18946907559E-02 0.33920584291E-02
 0.46002998152E-02 0.48183683979E-02 0.41752064418E-02 0.33804838738E-02 0.32394523513E-02
 0.42485198270E-02 0.62515185744E-02 0.83938283004E-02 0.97025149325E-02 0.99182100269E-02
 0.96584806260E-02 0.96716483538E-02 0.10065313122E-01 0.10368039931E-01 0.10161747933E-01
 0.94321301068E-02 0.83962127239E-02 0.72687270915E-02 0.62396440970E-02 0.54454370703E-02
 0.48213313571E-02 0.41044381494E-02 0.31267008806E-02 0.20559356675E-02 0.12579414240E-02
 0.94792811547E-03 0.10363111410E-02 0.12623889489E-02 0.14015402329E-02 0.13888702210E-02
 0.13380200388E-02 0.14313536170E-02 0.17026784335E-02 0.19256345957E-02 0.18034024937E-02
 0.12991633165E-02 0.71987748633E-03 0.43374887643E-03 0.52663060854E-03 0.74877520179E-03
 0.78575683546E-03 0.59499722063E-03 0.48427363735E-03 0.78684215999E-03 0.13955464432E-02
 0.17794709622E-02 0.13570639490E-02 0.57225587925E-03 0.36216521100E-03 0.10157738419E-02
 0.18231791155E-02 0.19972320575E-02 0.16511508251E-02 0.15833237440E-02 0.22483755323E-02
 0.32638526459E-02 0.39177237078E-02 0.38813723233E-02 0.33879896658E-02 0.30045796830E-02
 0.33606058159E-02 0.48083127455E-02 0.70390077596E-02 0.91239121578E-02 0.10223644831E-01
 0.10319600914E-01 0.10132233423E-01 0.10380467268E-01 0.11316138149E-01 0.12898367436E-01
 0.15002524079E-01 0.17191619994E-01 0.18516551365E-01 0.17960670673E-01 0.15228976179E-01
 0.11003434279E-01 0.64087844887E-02 0.23327400289E-02 -.78470203523E-03 -.27710894868E-02
 -.35825253896E-02 -.33362520339E-02 -.23523049283E-02 -.10875079948E-02 0.86419918297E-05
 0.66335888483E-03 0.90788866039E-03 0.10244950684E-02 0.12812899495E-02 0.16625080034E-02
 0.18769623321E-02 0.16696966582E-02 0.11303359387E-02 0.65955965594E-03 0.58219492119E-03
 0.79458783836E-03 0.88008262693E-03 0.64142640126E-03 0.42107480145E-03 0.70282978068E-03
 0.12333325329E-02 0.16455773577E-02 0.13012497229E-02 0.60908092240E-03 0.45932981248E-03
 0.10986631623E-02 0.18729664010E-02 0.21338832661E-02 0.20062024405E-02 0.20550605381E-02
 0.24887929162E-02 0.29928947205E-02 0.32085168062E-02 0.30922331435E-02 0.28764420079E-02
 0.29501269103E-02 0.37472079408E-02 0.54274797301E-02 0.75424563407E-02 0.92383341372E-02
 0.99759728765E-02 0.10014431905E-01 0.10229457158E-01 0.11733280847E-01 0.15742363453E-01
 0.23272155788E-01 0.34138404414E-01 0.45923731551E-01 0.54331231104E-01 0.55315916630E-01
 0.47550230481E-01 0.33276624779E-01 0.16960980046E-01 0.28865808343E-02 -.66102841038E-02
 -.11375450243E-01 -.12482847922E-01 -.11175842041E-01 -.84707125792E-02 -.52966516543E-02
 -.25376213450E-02 -.73576649155E-03 0.14378307823E-03 0.53587412339E-03 0.85375321371E-03
 0.12363592977E-02 0.15697072249E-02 0.16450994832E-02 0.13732943851E-02 0.94969158489E-03
 0.72979715244E-03 0.82160486014E-03 0.91197423916E-03 0.70136457379E-03 0.42148600493E-03
 0.59512608649E-03 0.10608659387E-02 0.14429589765E-02 0.11570471280E-02 0.56016459840E-03
 0.49446843140E-03 0.11967760056E-02 0.20236703714E-02 0.23341090403E-02 0.22359126706E-02
 0.22416282154E-02 0.25095659255E-02 0.27560011773E-02 0.27627197998E-02 0.26560113325E-02
 0.27341531882E-02 0.32690561664E-02 0.44333575985E-02 0.61373937748E-02 0.78858805668E-02
 0.90339312489E-02 0.93506459805E-02 0.93881336010E-02 0.10593483222E-01 0.15474703040E-01
 0.27421782535E-01 0.49086621675E-01 0.79395173144E-01 0.11151985023E+00 0.13452213028E+00
 0.13862000665E+00 0.12071089139E+00 0.86259732439E-01 0.46315066290E-01 0.11820595220E-01
 -.11056302739E-01 -.21984965093E-01 -.24205369888E-01 -.21434023213E-01 -.16314052992E-01
 -.10612438298E-01 -.57110351620E-02 -.24272173375E-02 -.69700373808E-03 0.11925101470E-03
 0.58945994383E-03 0.93457130677E-03 0.11982916392E-02 0.13736632833E-02 0.13896711970E-02
 0.12188652629E-02 0.10163131688E-02 0.94849962190E-03 0.91089523346E-03 0.68758163871E-03
 0.41304481225E-03 0.51926435700E-03 0.91431455353E-03 0.12163471605E-02 0.95747260755E-03
 0.46952762612E-03 0.53227385995E-03 0.13414345344E-02 0.22115314027E-02 0.24675171951E-02
 0.22548254089E-02 0.21787483391E-02 0.24199934734E-02 0.26190555853E-02 0.25424441303E-02
 0.24722850677E-02 0.28617975659E-02 0.38773891443E-02 0.53559185760E-02 0.69716259211E-02
 0.82999105010E-02 0.89239881610E-02 0.88027027737E-02 0.89005919210E-02 0.12004013319E-01
 0.23339231378E-01 0.49678157498E-01 0.95594056916E-01 0.15790756386E+00 0.22262961175E+00
 0.26863523675E+00 0.27754801164E+00 0.24381940656E+00 0.17807140564E+00 0.10144567449E+00
 0.34954166749E-01 -.93487702736E-02 -.30633932499E-01 -.35304473234E-01 -.31061662335E-01
 -.23341539794E-01 -.15155843435E-01 -.82526380649E-02 -.35851727348E-02 -.11046203224E-02
 -.11330349392E-06 0.53938472353E-03 0.87122891517E-03 0.10808275829E-02 0.12435069172E-02
 0.13840678484E-02 0.14273298938E-02 0.13435604808E-02 0.12022935185E-02 0.10105833108E-02
 0.70809368891E-03 0.42569890705E-03 0.48459513936E-03 0.73892626913E-03 0.97135396554E-03
 0.78506761941E-03 0.45652668124E-03 0.62737903753E-03 0.14283839458E-02 0.22214036694E-02
 0.24068570223E-02 0.21729485633E-02 0.21244509704E-02 0.23913968228E-02 0.25492795722E-02
 0.24021592333E-02 0.24067732679E-02 0.31397885256E-02 0.46195348892E-02 0.63581584455E-02
 0.78660284417E-02 0.88433015324E-02 0.90404156273E-02 0.85222546201E-02 0.88565023010E-02
 0.14869125197E-01 0.35521717707E-01 0.81727883385E-01 0.15988280065E+00 0.26352149725E+00
 0.36945083498E+00 0.44406385671E+00 0.45873711551E+00 0.40525643877E+00 0.30077106439E+00
 0.17882663387E+00 0.72656809727E-01 0.14469843468E-02 -.33288840468E-01 -.41743014579E-01
 -.36555770482E-01 -.26750926963E-01 -.16858383411E-01 -.88115128788E-02 -.34362675879E-02
 -.66378064220E-03 0.39386597492E-03 0.78329400290E-03 0.10554593954E-02 0.12695700672E-02
 0.13936319149E-02 0.14744480656E-02 0.15403664974E-02 0.15522776157E-02 0.14577800027E-02
 0.12105066935E-02 0.81966044343E-03 0.46739328672E-03 0.43550660499E-03 0.57430626371E-03
 0.78550522200E-03 0.70236230155E-03 0.52197904873E-03 0.71790118702E-03 0.13806282066E-02
 0.20308167358E-02 0.22291945925E-02 0.21348851846E-02 0.21956376968E-02 0.24509603736E-02
 0.25254209395E-02 0.23411737240E-02 0.24548958118E-02 0.34584855037E-02 0.52497720572E-02
 0.71411445440E-02 0.85459592347E-02 0.92559366468E-02 0.91515831562E-02 0.84211211750E-02
 0.92983464666E-02 0.18743962169E-01 0.49539239799E-01 0.11664099600E+00 0.22787320164E+00
 0.37300370790E+00 0.51951004947E+00 0.62176261511E+00 0.64161751868E+00 0.56866032421E+00
 0.42654467974E+00 0.26083682049E+00 0.11651543987E+00 0.19446394370E-01 -.28426156997E-01
 -.41050098881E-01 -.35794972940E-01 -.25065185932E-01 -.14780212383E-01 -.68874292757E-02
 -.18398344269E-02 0.61082189334E-03 0.13453094925E-02 0.14404348050E-02 0.15224166184E-02
 0.16320215810E-02 0.16314885305E-02 0.15495239166E-02 0.15256427047E-02 0.15897472698E-02
 0.15983578610E-02 0.13762779825E-02 0.92009373191E-03 0.47813729939E-03 0.35698074980E-03
 0.53295011212E-03 0.74095558934E-03 0.70325796791E-03 0.58744506251E-03 0.76692731296E-03
 0.13141545790E-02 0.18787201372E-02 0.21333743911E-02 0.21721733687E-02 0.22960666513E-02
 0.25192602049E-02 0.25680027486E-02 0.24256455931E-02 0.26086154278E-02 0.36627472197E-02
 0.54775517915E-02 0.73342995009E-02 0.86070076662E-02 0.91395587275E-02 0.89370302357E-02
 0.83137895069E-02 0.99350391907E-02 0.22202598338E-01 0.60608034535E-01 0.14298451561E+00
 0.27800152942E+00 0.45243398986E+00 0.62701295805E+00 0.74787755241E+00 0.77069423528E+00
 0.68394097941E+00 0.51603080256E+00 0.32092694217E+00 0.15157311905E+00 0.38018651178E-01
 -.18070271482E-01 -.33564907932E-01 -.29024328199E-01 -.18882932004E-01 -.97272066721E-02
 -.32732523449E-02 0.53891475690E-03 0.22425659385E-02 0.26181201988E-02 0.24683970152E-02
 0.22580646808E-02 0.20439327392E-02 0.17613594054E-02 0.14902809450E-02 0.14022701401E-02
 0.15191694827E-02 0.16170372651E-02 0.14274221247E-02 0.93897376040E-03 0.46123808396E-03
 0.32761660012E-03 0.62379879012E-03 0.81773465280E-03 0.76422477226E-03 0.65458225384E-03
 0.84858860004E-03 0.13967230591E-02 0.19564987487E-02 0.22136193492E-02 0.22461649196E-02
 0.23439720232E-02 0.25601505364E-02 0.26600823371E-02 0.25805909113E-02 0.27308059966E-02
 0.36099967502E-02 0.51649520536E-02 0.67625692872E-02 0.78414627547E-02 0.83253489916E-02
 0.82989611223E-02 0.80655891996E-02 0.10246659611E-01 0.23475820299E-01 0.63942499881E-01
 0.15028549267E+00 0.29132664782E+00 0.47285570345E+00 0.65373845613E+00 0.77818947717E+00
 0.80077517696E+00 0.71026902424E+00 0.53675050220E+00 0.33644847434E+00 0.16394408572E+00
 0.49452844394E-01 -.64585927679E-02 -.22019737456E-01 -.18526917186E-01 -.10381422895E-01
 -.36800103806E-02 0.48023890261E-03 0.26746348393E-02 0.36131188728E-02 0.38114760101E-02
 0.35861821105E-02 0.30959850288E-02 0.24484808503E-02 0.18009819776E-02 0.13584005493E-02
 0.12561117339E-02 0.14235152798E-02 0.15746380782E-02 0.14196409251E-02 0.95384631148E-03
 0.50449984440E-03 0.40419748709E-03 0.75153826301E-03 0.95880595663E-03 0.90033500980E-03
 0.77619053755E-03 0.99107312575E-03 0.16006196895E-02 0.21957288391E-02 0.24024433221E-02
 0.23276469976E-02 0.23470516344E-02 0.25602876280E-02 0.27018618964E-02 0.26357394204E-02
 0.26944572606E-02 0.33218332682E-02 0.44803031327E-02 0.56665907131E-02 0.65165157737E-02
 0.70907922577E-02 0.74535110279E-02 0.76867383405E-02 0.98898906539E-02 0.21683630591E-01
 0.57732381805E-01 0.13512801387E+00 0.26214426940E+00 0.42602617120E+00 0.58934049468E+00
 0.70125031784E+00 0.72056396471E+00 0.63764602396E+00 0.48068613257E+00 0.30134659919E+00
 0.14893568049E+00 0.49710834067E-01 0.26459916655E-02 -.98858140154E-02 -.73347570580E-02
 -.20468591623E-02 0.14928797492E-02 0.31637164974E-02 0.39311737558E-02 0.44090103484E-02
 0.46739667767E-02 0.45276308504E-02 0.38512322551E-02 0.28304685910E-02 0.18686160446E-02
 0.13011180270E-02 0.11998575600E-02 0.13860439328E-02 0.15531405020E-02 0.14410679652E-02
 0.10342637354E-02 0.61889023753E-03 0.52422832786E-03 0.87245037942E-03 0.11624914357E-02
 0.11172733935E-02 0.91604668098E-03 0.10790793273E-02 0.17451594641E-02 0.24183320318E-02
 0.25871382064E-02 0.23619070810E-02 0.22469074713E-02 0.24231816835E-02 0.25960140123E-02
 0.25606482485E-02 0.25805629642E-02 0.30157373864E-02 0.38064217241E-02 0.45973870911E-02
 0.52743882605E-02 0.60221519544E-02 0.68027001281E-02 0.73857570173E-02 0.90871759228E-02
 0.17641000882E-01 0.44511104259E-01 0.10341693386E+00 0.20148484902E+00 0.32923087702E+00
 0.45715614632E+00 0.54465745910E+00 0.55885082109E+00 0.49250777334E+00 0.36890735617E+00
 0.22971217097E+00 0.11379100678E+00 0.40720369981E-01 0.80012748558E-02 0.38835091284E-03
 0.22264978839E-02 0.45411894889E-02 0.50518039107E-02 0.46665688208E-02 0.45106791643E-02
 0.48733438814E-02 0.53520052569E-02 0.53412147765E-02 0.45400392830E-02 0.32251737922E-02
 0.20274775567E-02 0.14014938575E-02 0.13358998150E-02 0.15209677560E-02 0.16423607550E-02
 0.15098813607E-02 0.11152925272E-02 0.69690763529E-03 0.59596211893E-03 0.10064015318E-02
 0.14061062109E-02 0.13385254871E-02 0.98119926327E-03 0.10331023810E-02 0.17629172919E-02
 0.25601241752E-02 0.26959143213E-02 0.22493220247E-02 0.19153514924E-02 0.20551515479E-02
 0.23699799279E-02 0.25178882154E-02 0.26172338987E-02 0.29502514174E-02 0.34959023310E-02
 0.40619478483E-02 0.47004103328E-02 0.56217973300E-02 0.66872071849E-02 0.74579819249E-02
 0.84898347112E-02 0.13353454797E-01 0.29656603342E-01 0.66963768084E-01 0.13084253493E+00
 0.21562008102E+00 0.30142553545E+00 0.36018264685E+00 0.36908198551E+00 0.32343381618E+00
 0.23992475116E+00 0.14768081973E+00 0.73153478078E-01 0.28670292061E-01 0.10933004295E-01
 0.81804421057E-02 0.93831091238E-02 0.92318161597E-02 0.75136801125E-02 0.58476497074E-02
 0.52640288312E-02 0.56749113854E-02 0.63228553858E-02 0.63510431369E-02 0.53557744182E-02
 0.37192337076E-02 0.23071867065E-02 0.16919652831E-02 0.17327860589E-02 0.19164052364E-02
 0.18952187404E-02 0.16032703991E-02 0.11218035526E-02 0.68193956893E-03 0.61965662401E-03
 0.11129380402E-02 0.15671995153E-02 0.14532130375E-02 0.97228816729E-03 0.96293473192E-03
 0.17736675502E-02 0.26657062196E-02 0.27055703775E-02 0.19672950799E-02 0.13879542622E-02
 0.15625408297E-02 0.21762786974E-02 0.26625732959E-02 0.29345002166E-02 0.32453705649E-02
 0.36957857087E-02 0.42301948929E-02 0.49341123222E-02 0.59581196158E-02 0.71322159839E-02
 0.79892500372E-02 0.85600771901E-02 0.10567911097E-01 0.18147571204E-01 0.36937437218E-01
 0.70783704884E-01 0.11720617293E+00 0.16514301200E+00 0.19824400707E+00 0.20307260668E+00
 0.17700589320E+00 0.13012640185E+00 0.79661901616E-01 0.40808013694E-01 0.19898568762E-01
 0.13703822774E-01 0.14210939574E-01 0.14710273124E-01 0.12911278946E-01 0.99798401864E-02
 0.77726293751E-02 0.70636789311E-02 0.74650772620E-02 0.80324837722E-02 0.78168545630E-02
 0.64185378344E-02 0.43678534682E-02 0.27467393054E-02 0.21926123101E-02 0.23763834975E-02
 0.25378226326E-02 0.22883489671E-02 0.17308671782E-02 0.11019942989E-02 0.64550591152E-03
 0.64040645833E-03 0.11150901704E-02 0.15549701440E-02 0.14397401210E-02 0.97676908656E-03
 0.10119173306E-02 0.18792425667E-02 0.27635837228E-02 0.26511043567E-02 0.16634752901E-02
 0.93171865489E-03 0.12147345434E-02 0.21559411631E-02 0.29839683663E-02 0.34519819214E-02
 0.38204865470E-02 0.42929924608E-02 0.48720338921E-02 0.56127827822E-02 0.66218511011E-02
 0.77707096348E-02 0.86734773678E-02 0.91270351042E-02 0.96867250047E-02 0.12038948717E-01
 0.18795151068E-01 0.32180882278E-01 0.51763727556E-01 0.72902819052E-01 0.88007679642E-01
 0.90582621800E-01 0.79317754583E-01 0.59086745934E-01 0.38129242409E-01 0.23464403839E-01
 0.17496057951E-01 0.17731721979E-01 0.19451424616E-01 0.19207437327E-01 0.16577026057E-01
 0.13259677632E-01 0.10977233459E-01 0.10224507216E-01 0.10408419488E-01 0.10513143732E-01
 0.96571642537E-02 0.76102448967E-02 0.50959860404E-02 0.33092500127E-02 0.28331732997E-02
 0.31333451263E-02 0.32483735660E-02 0.27638341712E-02 0.19323977071E-02 0.11422055456E-02
 0.64991050223E-03 0.65076852193E-03 0.10519224762E-02 0.14545286330E-02 0.13815618867E-02
 0.10269993251E-02 0.11515458950E-02 0.20260169361E-02 0.28386730270E-02 0.26147942929E-02
 0.15287893922E-02 0.77850686187E-03 0.11692293298E-02 0.23156860053E-02 0.33581560407E-02
 0.39819717940E-02 0.44398035670E-02 0.49460763257E-02 0.54975938342E-02 0.61474253862E-02
 0.70334124084E-02 0.80929663272E-02 0.90229233478E-02 0.95914723148E-02 0.98703070681E-02
 0.10258638883E-01 0.11529740018E-01 0.14701963493E-01 0.20273812532E-01 0.27209626929E-01
 0.32939121629E-01 0.34901499522E-01 0.32421461974E-01 0.27239199347E-01 0.22325616214E-01
 0.20024695149E-01 0.20768830854E-01 0.23015716566E-01 0.24415037812E-01 0.23498239816E-01
 0.20623417436E-01 0.17398337072E-01 0.15220331007E-01 0.14338042467E-01 0.14024978695E-01
 0.13289503239E-01 0.11473942789E-01 0.86512970261E-02 0.57167325630E-02 0.38295938997E-02
 0.34257431178E-02 0.38175575479E-02 0.39246220456E-02 0.32871971502E-02 0.22255442842E-02
 0.12528142820E-02 0.67865432159E-03 0.64113897435E-03 0.10468158844E-02 0.13990303909E-02
 0.13443957131E-02 0.10771670039E-02 0.12640155814E-02 0.21151832566E-02 0.28702817135E-02
 0.26378003579E-02 0.16016051167E-02 0.91091469620E-03 0.13473596254E-02 0.25473944510E-02
 0.36662879346E-02 0.43624177602E-02 0.48377721452E-02 0.52729042987E-02 0.56747502473E-02
 0.61490609802E-02 0.68913136038E-02 0.78685402896E-02 0.87999735357E-02 0.94961758054E-02
 0.99875695433E-02 0.10345533442E-01 0.10709308489E-01 0.11559450644E-01 0.13553224065E-01
 0.16764958709E-01 0.20270118322E-01 0.22806794237E-01 0.23875408382E-01 0.24064672661E-01
 0.24399830891E-01 0.25521885465E-01 0.27305840172E-01 0.28921154883E-01 0.29271867057E-01
 0.27762596639E-01 0.24878900466E-01 0.21887008745E-01 0.19795178761E-01 0.18603701591E-01
 0.17516943779E-01 0.15699635915E-01 0.12838444901E-01 0.93169146581E-02 0.60916907398E-02
 0.41719216227E-02 0.38386475826E-02 0.43336807040E-02 0.45122099654E-02 0.38277671308E-02