   6   6   0   0
  0.3600000E+02  0.6000000E-09  0.6000000E-09  0.6000000E-09  0.5000000E-15
  1.000000000000000E-004
  CAR 
 unknown system                          
      4.64655251    -26.49555943  301     -5.16856016      1.00000000
    -26.496  0.0000E+00  0.0000E+00
    -26.392  0.0000E+00  0.0000E+00
    -26.288  0.0000E+00  0.0000E+00
    -26.184 -0.2530E-30 -0.2626E-31
    -26.080 -0.1161E-26 -0.1205E-27
    -25.977 -0.3094E-23 -0.3213E-24
    -25.873 -0.4788E-20 -0.4974E-21
    -25.769 -0.4298E-17 -0.4466E-18
    -25.665 -0.2181E-14 -0.2269E-15
    -25.561 -0.6491E-12 -0.6760E-13
    -25.457 -0.1118E-09 -0.1168E-10
    -25.354 -0.1106E-07 -0.1159E-08
    -25.250 -0.6232E-06 -0.6585E-07
    -25.146 -0.1982E-04 -0.2123E-05
    -25.042 -0.3487E-03 -0.3832E-04
    -24.938 -0.3258E-02 -0.3765E-03
    -24.835 -0.1443E-01 -0.1875E-02
    -24.731 -0.1573E-01 -0.3507E-02
    -24.627  0.8764E-01  0.5590E-02
    -24.523  0.3162E+00  0.3842E-01
    -24.419  0.3984E+00  0.7978E-01
    -24.316  0.2058E+00  0.1011E+00
    -24.212  0.1899E-01  0.1031E+00
    -24.108 -0.2056E-01  0.1010E+00
    -24.004 -0.8017E-02  0.1001E+00
    -23.900 -0.1247E-02  0.1000E+00
    -23.797 -0.9856E-04  0.1000E+00
    -23.693 -0.4235E-05  0.1000E+00
    -23.589 -0.1018E-06  0.1000E+00
    -23.485 -0.1387E-08  0.1000E+00
    -23.381 -0.1082E-10  0.1000E+00
    -23.278 -0.4834E-13  0.1000E+00
    -23.174 -0.2139E-15  0.1000E+00
    -23.070  0.0000E+00  0.1000E+00
    -22.966  0.0000E+00  0.1000E+00
    -22.862  0.0000E+00  0.1000E+00
    -22.759  0.0000E+00  0.1000E+00
    -22.655  0.0000E+00  0.1000E+00
    -22.551  0.0000E+00  0.1000E+00
    -22.447  0.0000E+00  0.1000E+00
    -22.343  0.0000E+00  0.1000E+00
    -22.239  0.0000E+00  0.1000E+00
    -22.136  0.0000E+00  0.1000E+00
    -22.032  0.0000E+00  0.1000E+00
    -21.928  0.0000E+00  0.1000E+00
    -21.824  0.0000E+00  0.1000E+00
    -21.720  0.0000E+00  0.1000E+00
    -21.617  0.0000E+00  0.1000E+00
    -21.513  0.0000E+00  0.1000E+00
    -21.409  0.0000E+00  0.1000E+00
    -21.305  0.0000E+00  0.1000E+00
    -21.201  0.0000E+00  0.1000E+00
    -21.098  0.0000E+00  0.1000E+00
    -20.994  0.0000E+00  0.1000E+00
    -20.890  0.0000E+00  0.1000E+00
    -20.786  0.0000E+00  0.1000E+00
    -20.682  0.0000E+00  0.1000E+00
    -20.579  0.0000E+00  0.1000E+00
    -20.475  0.0000E+00  0.1000E+00
    -20.371  0.0000E+00  0.1000E+00
    -20.267  0.0000E+00  0.1000E+00
    -20.163  0.0000E+00  0.1000E+00
    -20.060  0.0000E+00  0.1000E+00
    -19.956  0.0000E+00  0.1000E+00
    -19.852  0.0000E+00  0.1000E+00
    -19.748  0.0000E+00  0.1000E+00
    -19.644  0.0000E+00  0.1000E+00
    -19.540  0.0000E+00  0.1000E+00
    -19.437  0.0000E+00  0.1000E+00
    -19.333  0.0000E+00  0.1000E+00
    -19.229  0.0000E+00  0.1000E+00
    -19.125  0.0000E+00  0.1000E+00
    -19.021  0.0000E+00  0.1000E+00
    -18.918  0.0000E+00  0.1000E+00
    -18.814  0.0000E+00  0.1000E+00
    -18.710  0.0000E+00  0.1000E+00
    -18.606  0.0000E+00  0.1000E+00
    -18.502  0.0000E+00  0.1000E+00
    -18.399  0.0000E+00  0.1000E+00
    -18.295  0.0000E+00  0.1000E+00
    -18.191  0.0000E+00  0.1000E+00
    -18.087  0.0000E+00  0.1000E+00
    -17.983  0.0000E+00  0.1000E+00
    -17.880  0.0000E+00  0.1000E+00
    -17.776  0.0000E+00  0.1000E+00
    -17.672  0.0000E+00  0.1000E+00
    -17.568  0.0000E+00  0.1000E+00
    -17.464 -0.1782E-27  0.1000E+00
    -17.361 -0.5377E-24  0.1000E+00
    -17.257 -0.9419E-21  0.1000E+00
    -17.153 -0.9572E-18  0.1000E+00
    -17.049 -0.5638E-15  0.1000E+00
    -16.945 -0.1858E-12  0.1000E+00
    -16.842 -0.3631E-10  0.1000E+00
    -16.738 -0.4076E-08  0.1000E+00
    -16.634 -0.2613E-06  0.1000E+00
    -16.530 -0.9481E-05  0.1000E+00
    -16.426 -0.1914E-03  0.9998E-01
    -16.322 -0.2078E-02  0.9976E-01
    -16.219 -0.1112E-01  0.9861E-01
    -16.115 -0.2010E-01  0.9652E-01
    -16.011  0.4934E-01  0.1016E+00
    -15.907  0.2641E+00  0.1291E+00
    -15.803  0.4077E+00  0.1714E+00
    -15.700  0.2614E+00  0.1985E+00
    -15.596  0.4770E-01  0.2035E+00
    -15.492 -0.2020E-01  0.2014E+00
    -15.388 -0.1096E-01  0.2002E+00
    -15.284 -0.2030E-02  0.2000E+00
    -15.181 -0.1857E-03  0.2000E+00
    -15.077 -0.9138E-05  0.2000E+00
    -14.973 -0.2503E-06  0.2000E+00
    -14.869 -0.3879E-08  0.2000E+00
    -14.765 -0.3434E-10  0.2000E+00
    -14.662 -0.1748E-12  0.2000E+00
    -14.558 -0.4278E-15  0.2000E+00
    -14.454  0.0000E+00  0.2000E+00
    -14.350  0.0000E+00  0.2000E+00
    -14.246  0.0000E+00  0.2000E+00
    -14.143  0.0000E+00  0.2000E+00
    -14.039  0.0000E+00  0.2000E+00
    -13.935  0.0000E+00  0.2000E+00
    -13.831  0.0000E+00  0.2000E+00
    -13.727  0.0000E+00  0.2000E+00
    -13.623  0.0000E+00  0.2000E+00
    -13.520  0.0000E+00  0.2000E+00
    -13.416  0.0000E+00  0.2000E+00
    -13.312  0.0000E+00  0.2000E+00
    -13.208  0.0000E+00  0.2000E+00
    -13.104 -0.2110E-27  0.2000E+00
    -13.001 -0.6294E-24  0.2000E+00
    -12.897 -0.1090E-20  0.2000E+00
    -12.793 -0.1096E-17  0.2000E+00
    -12.689 -0.6384E-15  0.2000E+00
    -12.585 -0.2080E-12  0.2000E+00
    -12.482 -0.4020E-10  0.2000E+00
    -12.378 -0.4461E-08  0.2000E+00
    -12.274 -0.2828E-06  0.2000E+00
    -12.170 -0.1014E-04  0.2000E+00
    -12.066 -0.2022E-03  0.2000E+00
    -11.963 -0.2166E-02  0.1998E+00
    -11.859 -0.1141E-01  0.1986E+00
    -11.755 -0.1989E-01  0.1965E+00
    -11.651  0.5239E-01  0.2019E+00
    -11.547  0.2689E+00  0.2299E+00
    -11.444  0.4076E+00  0.2722E+00
    -11.340  0.2565E+00  0.2988E+00
    -11.236  0.4476E-01  0.3034E+00
    -11.132 -0.2036E-01  0.3013E+00
    -11.028 -0.1068E-01  0.3002E+00
    -10.925 -0.1947E-02  0.3000E+00
    -10.821 -0.1757E-03  0.3000E+00
    -10.717 -0.8542E-05  0.3000E+00
    -10.613 -0.2312E-06  0.3000E+00
    -10.509 -0.5425E-08  0.3000E+00
    -10.405 -0.1330E-06  0.3000E+00
    -10.302 -0.5325E-05  0.3000E+00
    -10.198 -0.1191E-03  0.3000E+00
    -10.094 -0.1446E-02  0.2998E+00
     -9.990 -0.8883E-02  0.2989E+00
     -9.886 -0.2151E-01  0.2967E+00
     -9.783  0.2080E-01  0.2988E+00
     -9.679  0.2034E+00  0.3200E+00
     -9.575  0.4026E+00  0.3617E+00
     -9.471  0.4547E+00  0.4090E+00
     -9.367  0.4488E+00  0.4555E+00
     -9.264  0.3415E+00  0.4910E+00
     -9.160  0.1193E+00  0.5034E+00
     -9.056 -0.9071E-02  0.5024E+00
     -8.952 -0.1787E-01  0.5006E+00
     -8.848 -0.4877E-02  0.5001E+00
     -8.745 -0.6052E-03  0.5000E+00
     -8.641 -0.3935E-04  0.5000E+00
     -8.537 -0.1407E-05  0.5000E+00
     -8.433 -0.2830E-07  0.5000E+00
     -8.329 -0.3239E-09  0.5000E+00
     -8.226 -0.2202E-11  0.5000E+00
     -8.122 -0.1660E-10  0.5000E+00
     -8.018 -0.2031E-08  0.5000E+00
     -7.914 -0.1421E-06  0.5000E+00
     -7.810 -0.5638E-05  0.5000E+00
     -7.706 -0.1249E-03  0.5000E+00
     -7.603 -0.1498E-02  0.4998E+00
     -7.499 -0.9043E-02  0.4989E+00
     -7.395 -0.2077E-01  0.4967E+00
     -7.291  0.2848E-01  0.4997E+00
     -7.187  0.2263E+00  0.5232E+00
     -7.084  0.4039E+00  0.5651E+00
     -6.980  0.2978E+00  0.5960E+00
     -6.876  0.7253E-01  0.6035E+00
     -6.772 -0.1789E-01  0.6017E+00
     -6.668 -0.1320E-01  0.6003E+00
     -6.565 -0.2773E-02  0.6000E+00
     -6.461 -0.2808E-03  0.6000E+00
     -6.357 -0.1517E-04  0.6000E+00
     -6.253 -0.4553E-06  0.6000E+00
     -6.149 -0.7757E-07  0.6000E+00
     -6.046 -0.3067E-05  0.6000E+00
     -5.942 -0.7542E-04  0.6000E+00
     -5.838 -0.1012E-02  0.5999E+00
     -5.734 -0.6964E-02  0.5992E+00
     -5.630 -0.1997E-01  0.5971E+00
     -5.527  0.9862E-02  0.5981E+00
     -5.423  0.1832E+00  0.6171E+00
     -5.319  0.3897E+00  0.6576E+00
     -5.215  0.3354E+00  0.6924E+00
     -5.111  0.1057E+00  0.7034E+00
     -5.008 -0.1245E-01  0.7021E+00
     -4.904 -0.1579E-01  0.7005E+00
     -4.800 -0.3872E-02  0.7000E+00
     -4.696 -0.4413E-03  0.7000E+00
     -4.592 -0.2654E-04  0.7000E+00
     -4.488 -0.8809E-06  0.7000E+00
     -4.385 -0.1647E-07  0.7000E+00
     -4.281 -0.1755E-09  0.7000E+00
     -4.177 -0.1072E-11  0.7000E+00
     -4.073 -0.3850E-14  0.7000E+00
     -3.969  0.0000E+00  0.7000E+00
     -3.866  0.0000E+00  0.7000E+00
     -3.762  0.0000E+00  0.7000E+00
     -3.658  0.0000E+00  0.7000E+00
     -3.554  0.0000E+00  0.7000E+00
     -3.450  0.0000E+00  0.7000E+00
     -3.347  0.0000E+00  0.7000E+00
     -3.243  0.0000E+00  0.7000E+00
     -3.139  0.0000E+00  0.7000E+00
     -3.035  0.0000E+00  0.7000E+00
     -2.931  0.0000E+00  0.7000E+00
     -2.828  0.0000E+00  0.7000E+00
     -2.724  0.0000E+00  0.7000E+00
     -2.620  0.0000E+00  0.7000E+00
     -2.516  0.0000E+00  0.7000E+00
     -2.412  0.0000E+00  0.7000E+00
     -2.309 -0.5523E-28  0.7000E+00
     -2.205 -0.1798E-24  0.7000E+00
     -2.101 -0.3401E-21  0.7000E+00
     -1.997 -0.3732E-18  0.7000E+00
     -1.893 -0.2374E-15  0.7000E+00
     -1.789 -0.8457E-13  0.7000E+00
     -1.686 -0.1786E-10  0.7000E+00
     -1.582 -0.2169E-08  0.7000E+00
     -1.478 -0.1505E-06  0.7000E+00
     -1.374 -0.5922E-05  0.7000E+00
     -1.270 -0.1300E-03  0.7000E+00
     -1.167 -0.1545E-02  0.6998E+00
     -1.063 -0.9228E-02  0.6989E+00
     -0.959 -0.2077E-01  0.6967E+00
     -0.855  0.3024E-01  0.6999E+00
     -0.751  0.2298E+00  0.7237E+00
     -0.648  0.4046E+00  0.7657E+00
     -0.544  0.2945E+00  0.7963E+00
     -0.440  0.7003E-01  0.8035E+00
     -0.336 -0.1819E-01  0.8017E+00
     -0.232 -0.1298E-01  0.8003E+00
     -0.129 -0.2696E-02  0.8000E+00
     -0.025 -0.2703E-03  0.8000E+00
      0.079 -0.1448E-04  0.8000E+00
      0.183 -0.4300E-06  0.8000E+00
      0.287 -0.7216E-08  0.8000E+00
      0.390 -0.6910E-10  0.8000E+00
      0.494 -0.3797E-12  0.8000E+00
      0.598 -0.1285E-14  0.8000E+00
      0.702 -0.6735E-15  0.8000E+00
      0.806 -0.2184E-12  0.8000E+00
      0.909 -0.4200E-10  0.8000E+00
      1.013 -0.4639E-08  0.8000E+00
      1.117 -0.2926E-06  0.8000E+00
      1.221 -0.1044E-04  0.8000E+00
      1.325 -0.2070E-03  0.8000E+00
      1.429 -0.2205E-02  0.7997E+00
      1.532 -0.1153E-01  0.7986E+00
      1.636 -0.1979E-01  0.7965E+00
      1.740  0.5373E-01  0.8021E+00
      1.844  0.2710E+00  0.8302E+00
      1.948  0.4069E+00  0.8724E+00
      2.051  0.2493E+00  0.8983E+00
      2.155  0.2450E-01  0.9009E+00
      2.259 -0.3380E-01  0.8974E+00
      2.363  0.1048E+00  0.9082E+00
      2.467  0.3785E+00  0.9475E+00
      2.570  0.5768E+00  0.1007E+01
      2.674  0.5483E+00  0.1064E+01
      2.778  0.3148E+00  0.1097E+01
      2.882  0.6910E-01  0.1104E+01
      2.986 -0.2126E-01  0.1102E+01
      3.089 -0.1516E-01  0.1100E+01
      3.193 -0.3307E-02  0.1100E+01
      3.297 -0.3505E-03  0.1100E+01
      3.401 -0.1986E-04  0.1100E+01
      3.505 -0.6237E-06  0.1100E+01
      3.608 -0.1106E-07  0.1100E+01
      3.712 -0.1118E-09  0.1100E+01
      3.816 -0.6492E-12  0.1100E+01
      3.920 -0.2139E-14  0.1100E+01
      4.024  0.0000E+00  0.1100E+01
      4.128  0.0000E+00  0.1100E+01
      4.231  0.0000E+00  0.1100E+01
      4.335  0.0000E+00  0.1100E+01
      4.439  0.0000E+00  0.1100E+01
      4.543  0.0000E+00  0.1100E+01
      4.647  0.0000E+00  0.1100E+01
