    6    6   20    1
  0.3600000E+02  0.6000000E-09  0.6000000E-09  0.6000000E-09  0.5000000E-15
  1.000000000000000E-004
  CAR 
 unknown system                          
   14    1   11
 
  0.0000000E+00  0.0000000E+00  0.0000000E+00  0.1000000E+01
   1      -24.495559
   2      -15.855916
   3      -11.498134
   4       -9.609625
   5       -9.372118
   6       -7.120005
   7       -5.336937
   8       -0.685473
   9        1.892060
  10        2.469822
  11        2.646553
