       N       E                     dE             d eps       ncg     rms          rms(c)
DAV:   1     0.101887986426E+03    0.10189E+03   -0.41724E+03    22   0.628E+02
DAV:   2    -0.207526920500E+02   -0.12264E+03   -0.12139E+03    38   0.184E+02
DAV:   3    -0.330714003439E+02   -0.12319E+02   -0.12297E+02    25   0.829E+01
DAV:   4    -0.334674037276E+02   -0.39600E+00   -0.39374E+00    28   0.152E+01
DAV:   5    -0.334817431446E+02   -0.14339E-01   -0.14323E-01    36   0.262E+00    0.942E+00
DAV:   6    -0.307828417205E+02    0.26989E+01   -0.61939E+00    25   0.175E+01    0.437E+00
DAV:   7    -0.302687289508E+02    0.51411E+00   -0.93070E-01    25   0.600E+00    0.211E+00
DAV:   8    -0.301446683361E+02    0.12406E+00   -0.18542E-01    28   0.451E+00    0.362E-01
DAV:   9    -0.301447765043E+02   -0.10817E-03   -0.33168E-02    25   0.177E+00    0.222E-01
DAV:  10    -0.301478801862E+02   -0.31037E-02   -0.41051E-03    22   0.601E-01    0.927E-02
DAV:  11    -0.301521586391E+02   -0.42785E-02   -0.27041E-03    22   0.454E-01    0.940E-02
DAV:  12    -0.301524810062E+02   -0.32237E-03   -0.10381E-03    25   0.338E-01    0.201E-02
DAV:  13    -0.301531567955E+02   -0.67579E-03   -0.11124E-04    22   0.985E-02    0.120E-02
DAV:  14    -0.301533279914E+02   -0.17120E-03   -0.17444E-05    25   0.369E-02    0.569E-03
DAV:  15    -0.301533550517E+02   -0.27060E-04   -0.79877E-06    25   0.242E-02
   1 F= -.30153355E+02 E0= -.30157220E+02  d E =-.301534E+02
       N       E                     dE             d eps       ncg     rms          rms(c)
DAV:   1    -0.301574525804E+02   -0.41246E-02   -0.26067E+00    22   0.159E+01    0.449E-01
DAV:   2    -0.301586735766E+02   -0.12210E-02   -0.63024E-02    28   0.216E+00    0.219E-01
DAV:   3    -0.301579041642E+02    0.76941E-03   -0.55041E-03    28   0.599E-01    0.848E-02
DAV:   4    -0.301579150788E+02   -0.10915E-04   -0.57618E-04    22   0.214E-01
   2 F= -.30157915E+02 E0= -.30161780E+02  d E =-.456003E-02
       N       E                     dE             d eps       ncg     rms          rms(c)
DAV:   1    -0.301604263373E+02   -0.25222E-02   -0.39154E-01    22   0.616E+00    0.171E-01
DAV:   2    -0.301607799517E+02   -0.35361E-03   -0.10362E-02    28   0.870E-01    0.878E-02
DAV:   3    -0.301606503874E+02    0.12956E-03   -0.78620E-04    25   0.226E-01    0.347E-02
DAV:   4    -0.301606527133E+02   -0.23259E-05   -0.84615E-05    22   0.846E-02
   3 F= -.30160653E+02 E0= -.30164518E+02  d E =-.729766E-02
       N       E                     dE             d eps       ncg     rms          rms(c)
DAV:   1    -0.301591769089E+02    0.14735E-02   -0.18837E-01    25   0.435E+00    0.130E-01
DAV:   2    -0.301594709189E+02   -0.29401E-03   -0.59943E-03    22   0.665E-01    0.868E-02
DAV:   3    -0.301593540224E+02    0.11690E-03   -0.25191E-04    25   0.143E-01    0.333E-02
DAV:   4    -0.301593454577E+02    0.85647E-05   -0.54191E-05    22   0.701E-02
   4 F= -.30159345E+02 E0= -.30163211E+02  d E =0.130726E-02
       N       E                     dE             d eps       ncg     rms          rms(c)
DAV:   1    -0.301611839686E+02   -0.18299E-02   -0.75532E-02    25   0.276E+00    0.801E-02
DAV:   2    -0.301613291048E+02   -0.14514E-03   -0.25126E-03    22   0.429E-01    0.556E-02
DAV:   3    -0.301612864648E+02    0.42640E-04   -0.10852E-04    25   0.945E-02
   5 F= -.30161286E+02 E0= -.30165152E+02  d E =-.633752E-03
