<?xml version="1.0" encoding="ISO-8859-1"?>
<modeling>
 <generator>
  <i name="program" type="string">vasp </i>
  <i name="version" type="string">5.2.12  </i>
  <i name="subversion" type="string">11Nov11 complex                                                      parallel </i>
  <i name="platform" type="string">LinuxIFC </i>
  <i name="date" type="string">2012 10 30 </i>
  <i name="time" type="string">14:00:34 </i>
 </generator>
 <incar>
  <i type="string" name="PREC">normal</i>
  <i type="int" name="IBRION">     2</i>
  <i type="int" name="NSW">    20</i>
  <i name="ENCUT">    350.00000000</i>
 </incar>
 <kpoints>
  <generation param="Monkhorst-Pack">
   <v type="int" name="divisions">       1        1        1 </v>
   <v name="usershift">      0.00000000       0.00000000       0.00000000 </v>
   <v name="genvec1">      1.00000000       0.00000000       0.00000000 </v>
   <v name="genvec2">      0.00000000       1.00000000       0.00000000 </v>
   <v name="genvec3">      0.00000000       0.00000000       1.00000000 </v>
   <v name="shift">      0.00000000       0.00000000       0.00000000 </v>
  </generation>
  <varray name="kpointlist" >
   <v>       0.00000000       0.00000000       0.00000000 </v>
  </varray>
  <varray name="weights" >
   <v>       1.00000000 </v>
  </varray>
 </kpoints>
 <parameters>
  <separator name="general" >
   <i type="string" name="SYSTEM">unknown system</i>
   <i type="logical" name="LCOMPAT"> F  </i>
  </separator>
  <separator name="electronic" >
   <i type="string" name="PREC">normal</i>
   <i name="ENMAX">    350.00000000</i>
   <i name="ENAUG">    644.87300000</i>
   <i name="EDIFF">      0.00010000</i>
   <i type="int" name="IALGO">    38</i>
   <i type="int" name="IWAVPR">    11</i>
   <i type="int" name="NBANDS">    11</i>
   <i name="NELECT">     14.00000000</i>
   <i type="int" name="TURBO">     0</i>
   <i type="int" name="IRESTART">     0</i>
   <i type="int" name="NREBOOT">     0</i>
   <i type="int" name="NMIN">     0</i>
   <i name="EREF">      0.00000000</i>
   <separator name="electronic smearing" >
    <i type="int" name="ISMEAR">     1</i>
    <i name="SIGMA">      0.20000000</i>
    <i name="KSPACING">      0.50000000</i>
    <i type="logical" name="KGAMMA"> T  </i>
   </separator>
   <separator name="electronic projectors" >
    <i type="logical" name="LREAL"> F  </i>
    <v name="ROPT">      0.00000000      0.00000000      0.00000000</v>
    <i type="int" name="LMAXPAW">  -100</i>
    <i type="int" name="LMAXMIX">     2</i>
    <i type="logical" name="NLSPLINE"> F  </i>
   </separator>
   <separator name="electronic startup" >
    <i type="int" name="ISTART">     0</i>
    <i type="int" name="ICHARG">     2</i>
    <i type="int" name="INIWAV">     1</i>
   </separator>
   <separator name="electronic spin" >
    <i type="int" name="ISPIN">     1</i>
    <i type="logical" name="LNONCOLLINEAR"> F  </i>
    <v name="MAGMOM">      1.00000000      1.00000000      1.00000000      1.00000000      1.00000000      1.00000000</v>
    <i name="NUPDOWN">     -1.00000000</i>
    <i type="logical" name="LSORBIT"> F  </i>
    <v name="SAXIS">      0.00000000      0.00000000      1.00000000</v>
    <i type="logical" name="LSPIRAL"> F  </i>
    <v name="QSPIRAL">      0.00000000      0.00000000      0.00000000</v>
    <i type="logical" name="LZEROZ"> F  </i>
   </separator>
   <separator name="electronic exchange-correlation" >
    <i type="logical" name="LASPH"> F  </i>
    <i type="logical" name="LMETAGGA"> F  </i>
   </separator>
   <separator name="electronic convergence" >
    <i type="int" name="NELM">    60</i>
    <i type="int" name="NELMDL">    -5</i>
    <i type="int" name="NELMIN">     2</i>
    <i name="ENINI">    350.00000000</i>
    <separator name="electronic convergence detail" >
     <i type="logical" name="LDIAG"> T  </i>
     <i type="logical" name="LSUBROT"> T  </i>
     <i name="WEIMIN">      0.00100000</i>
     <i name="EBREAK">      0.00000227</i>
     <i name="DEPER">      0.30000000</i>
     <i type="int" name="NRMM">     4</i>
     <i name="TIME">      0.40000000</i>
    </separator>
   </separator>
   <separator name="electronic mixer" >
    <i name="AMIX">      0.40000000</i>
    <i name="BMIX">      1.00000000</i>
    <i name="AMIN">      0.10000000</i>
    <i name="AMIX_MAG">      1.60000000</i>
    <i name="BMIX_MAG">      1.00000000</i>
    <separator name="electronic mixer details" >
     <i type="int" name="IMIX">     4</i>
     <i type="int" name="MAXMIX">   -45</i>
     <i name="WC">    100.00000000</i>
     <i type="int" name="INIMIX">     1</i>
     <i type="int" name="MIXPRE">     1</i>
     <i type="int" name="MREMOVE">     5</i>
    </separator>
   </separator>
   <separator name="electronic dipolcorrection" >
    <i type="logical" name="LDIPOL"> F  </i>
    <i type="logical" name="LMONO"> F  </i>
    <i type="int" name="IDIPOL">     0</i>
    <i name="EPSILON">      1.00000000</i>
    <v name="DIPOL">   -100.00000000   -100.00000000   -100.00000000</v>
    <i name="EFIELD">      0.00000000</i>
   </separator>
  </separator>
  <separator name="grids" >
   <i type="int" name="NGX">    28</i>
   <i type="int" name="NGY">    28</i>
   <i type="int" name="NGZ">    28</i>
   <i type="int" name="NGXF">    56</i>
   <i type="int" name="NGYF">    56</i>
   <i type="int" name="NGZF">    56</i>
   <i type="logical" name="ADDGRID"> F  </i>
  </separator>
  <separator name="ionic" >
   <i type="int" name="NSW">    20</i>
   <i type="int" name="IBRION">     2</i>
   <i type="int" name="ISIF">     2</i>
   <i name="PSTRESS">      0.00000000</i>
   <i name="EDIFFG">      0.00100000</i>
   <i type="int" name="NFREE">     1</i>
   <i name="POTIM">      0.50000000</i>
   <i name="SMASS">     -3.00000000</i>
   <i name="SCALEE">      1.00000000</i>
  </separator>
  <separator name="ionic md" >
   <i name="TEBEG">      0.00010000</i>
   <i name="TEEND">      0.00010000</i>
   <i type="int" name="NBLOCK">     1</i>
   <i type="int" name="KBLOCK">    20</i>
   <i type="int" name="NPACO">   256</i>
   <i name="APACO">     16.00000000</i>
  </separator>
  <separator name="symmetry" >
   <i type="int" name="ISYM">     2</i>
   <i name="SYMPREC">      0.00001000</i>
  </separator>
  <separator name="dos" >
   <i type="logical" name="LORBIT"> F  </i>
   <v name="RWIGS">     -1.00000000     -1.00000000     -1.00000000</v>
   <i type="int" name="NEDOS">   301</i>
   <i name="EMIN">     10.00000000</i>
   <i name="EMAX">    -10.00000000</i>
   <i name="EFERMI">      0.00000000</i>
  </separator>
  <separator name="writing" >
   <i type="int" name="NWRITE">     2</i>
   <i type="logical" name="LWAVE"> T  </i>
   <i type="logical" name="LCHARG"> T  </i>
   <i type="logical" name="LPARD"> F  </i>
   <i type="logical" name="LVTOT"> F  </i>
   <i type="logical" name="LVHAR"> F  </i>
   <i type="logical" name="LELF"> F  </i>
   <i type="logical" name="LOPTICS"> F  </i>
   <v name="STM">      0.00000000      0.00000000      0.00000000      0.00000000      0.00000000      0.00000000      0.00000000</v>
  </separator>
  <separator name="performance" >
   <i type="int" name="NPAR">     1</i>
   <i type="int" name="NSIM">     4</i>
   <i type="int" name="NBLK">    -1</i>
   <i type="logical" name="LPLANE"> T  </i>
   <i type="logical" name="LSCALAPACK"> F  </i>
   <i type="logical" name="LSCAAWARE"> F  </i>
   <i type="logical" name="LSCALU"> F  </i>
   <i type="logical" name="LASYNC"> F  </i>
   <i type="logical" name="LORBITALREAL"> F  </i>
  </separator>
  <separator name="miscellaneous" >
   <i type="int" name="IDIOT">     3</i>
   <i type="logical" name="LMUSIC"> F  </i>
   <v name="POMASS">      1.00000000     12.01100000     16.00000000</v>
   <v name="DARWINR">      0.00000000      0.00000000      0.00000000</v>
   <v name="DARWINV">      1.00000000      1.00000000      1.00000000</v>
   <i type="logical" name="LCORR"> T  </i>
  </separator>
  <i type="logical" name="GGA_COMPAT"> T  </i>
  <i type="logical" name="LBERRY"> F  </i>
  <i type="int" name="ICORELEVEL">     0</i>
  <i type="logical" name="LDAU"> F  </i>
  <i type="int" name="I_CONSTRAINED_M">     0</i>
  <separator name="electronic exchange-correlation" >
   <i type="string" name="GGA">--</i>
   <i type="int" name="VOSKOWN">     0</i>
   <i type="logical" name="LHFCALC"> F  </i>
   <i type="string" name="PRECFOCK"></i>
   <i type="logical" name="LHFONE"> F  </i>
   <i type="logical" name="LRHFCALC"> F  </i>
   <i type="logical" name="LTHOMAS"> F  </i>
   <i type="logical" name="LMODELHF"> F  </i>
   <i name="ENCUT4O">     -1.00000000</i>
   <i type="int" name="EXXOEP">     0</i>
   <i type="int" name="FOURORBIT">     0</i>
   <i name="AEXX">      0.00000000</i>
   <i name="HFALPHA">      0.00000000</i>
   <i name="ALDAX">      1.00000000</i>
   <i name="AGGAX">      1.00000000</i>
   <i name="ALDAC">      1.00000000</i>
   <i name="AGGAC">      1.00000000</i>
   <i type="int" name="NKREDX">     1</i>
   <i type="int" name="NKREDY">     1</i>
   <i type="int" name="NKREDZ">     1</i>
   <i type="logical" name="SHIFTRED"> F  </i>
   <i type="logical" name="ODDONLY"> F  </i>
   <i type="logical" name="EVENONLY"> F  </i>
   <i type="int" name="LMAXFOCK">     0</i>
   <i type="int" name="NMAXFOCKAE">     0</i>
   <i type="logical" name="LFOCKAEDFT"> F  </i>
   <i name="HFSCREEN">      0.00000000</i>
   <i name="HFSCREENC">      0.00000000</i>
  </separator>
  <separator name="vdW DFT" >
   <i type="logical" name="LUSE_VDW"> F  </i>
   <i name="Zab_VDW">     -0.84910000</i>
   <i name="PARAM1">      0.12340000</i>
   <i name="PARAM2">      1.00000000</i>
   <i name="PARAM3">      0.00000000</i>
  </separator>
  <separator name="model GW" >
   <i type="int" name="MODEL_GW">     0</i>
   <i name="MODEL_EPS0">     21.60000000</i>
   <i name="MODEL_ALPHA">      1.00000000</i>
  </separator>
  <separator name="linear response parameters" >
   <i type="logical" name="LEPSILON"> F  </i>
   <i type="logical" name="LRPA"> F  </i>
   <i type="logical" name="LNABLA"> F  </i>
   <i type="logical" name="LVEL"> F  </i>
   <i type="int" name="KINTER">     0</i>
   <i name="CSHIFT">      0.10000000</i>
   <i name="OMEGAMAX">     -1.00000000</i>
  </separator>
  <separator name="orbital magnetization" >
   <i type="logical" name="NUCIND"> F  </i>
   <v name="MAGPOS">      0.00000000      0.00000000      0.00000000</v>
   <i type="logical" name="LNICSALL"> T  </i>
   <i type="logical" name="ORBITALMAG"> F  </i>
   <i type="logical" name="LMAGBLOCH"> F  </i>
   <i type="logical" name="LCHIMAG"> F  </i>
   <i type="logical" name="LGAUGE"> T  </i>
   <i type="int" name="MAGATOM">     0</i>
   <v name="MAGDIPOL">      0.00000000      0.00000000      0.00000000</v>
   <v name="AVECCONST">      0.00000000      0.00000000      0.00000000</v>
  </separator>
  <separator name="response functions" >
   <i type="logical" name="LADDER"> F  </i>
   <i type="logical" name="LHARTREE"> T  </i>
   <i type="int" name="IBSE">     0</i>
   <i type="logical" name="LTCTE"> F  </i>
   <i type="logical" name="LTETE"> F  </i>
   <i type="logical" name="LFXCEPS"> F  </i>
   <i type="logical" name="L2ORDER"> F  </i>
   <i type="logical" name="LUSEW"> F  </i>
   <i name="ENCUTGW">     -2.00000000</i>
   <i name="ENCUTGWSOFT">     -2.00000000</i>
   <i name="ENCUTLF">     -1.00000000</i>
   <i type="int" name="LMAXMP2">    -1</i>
   <i name="SCISSOR">      0.00000000</i>
   <i type="int" name="NOMEGA">     0</i>
   <i type="int" name="NOMEGAR">     0</i>
   <i type="int" name="NBANDSGW">    -1</i>
   <i type="int" name="NBANDSO">    -1</i>
   <i type="int" name="NBANDSV">    -1</i>
   <i name="OPTEMAX">      0.00000000</i>
   <i type="int" name="NELM">     1</i>
   <i type="int" name="DIM">     3</i>
   <i type="int" name="ANTIRES">     0</i>
   <i name="OMEGAMAX">    -30.00000000</i>
   <i name="OMEGATL">   -200.00000000</i>
   <i type="int" name="OMEGAGRID">     0</i>
   <i name="CSHIFT">     -0.10000000</i>
   <i type="logical" name="SELFENERGY"> F  </i>
   <i type="logical" name="LSPECTRAL"> F  </i>
   <i type="logical" name="ODDONLYGW"> F  </i>
   <i type="logical" name="EVENONLYGW"> F  </i>
   <i type="int" name="NKREDLFX">     1</i>
   <i type="int" name="NKREDLFY">     1</i>
   <i type="int" name="NKREDLFZ">     1</i>
   <i type="int" name="MAXMEM">  1800</i>
   <i type="int" name="TELESCOPE">     0</i>
  </separator>
 </parameters>
 <atominfo>
  <atoms>       6 </atoms>
  <types>       3 </types>
  <array name="atoms" >
   <dimension dim="1">ion</dimension>
   <field type="string">element</field>
   <field type="int">atomtype</field>
   <set>
    <rc><c>H </c><c>   1</c></rc>
    <rc><c>H </c><c>   1</c></rc>
    <rc><c>H </c><c>   1</c></rc>
    <rc><c>H </c><c>   1</c></rc>
    <rc><c>C </c><c>   2</c></rc>
    <rc><c>O </c><c>   3</c></rc>
   </set>
  </array>
  <array name="atomtypes" >
   <dimension dim="1">type</dimension>
   <field type="int">atomspertype</field>
   <field type="string">element</field>
   <field>mass</field>
   <field>valence</field>
   <field type="string">pseudopotential</field>
   <set>
    <rc><c>   4</c><c>H </c><c>      1.00000000</c><c>      1.00000000</c><c> PAW_PBE H 15Jun2001                    </c></rc>
    <rc><c>   1</c><c>C </c><c>     12.01100000</c><c>      4.00000000</c><c> PAW_PBE C 08Apr2002                    </c></rc>
    <rc><c>   1</c><c>O </c><c>     16.00000000</c><c>      6.00000000</c><c> PAW_PBE O 08Apr2002                    </c></rc>
   </set>
  </array>
 </atominfo>
 <structure name="initialpos" >
  <crystal>
   <varray name="basis" >
    <v>       6.00000000       0.00000000       0.00000000 </v>
    <v>       0.00000000       6.00000000       0.00000000 </v>
    <v>       0.00000000       0.00000000       6.00000000 </v>
   </varray>
   <i name="volume">    216.00000000 </i>
   <varray name="rec_basis" >
    <v>       0.16666667       0.00000000       0.00000000 </v>
    <v>       0.00000000       0.16666667       0.00000000 </v>
    <v>       0.00000000       0.00000000       0.16666667 </v>
   </varray>
  </crystal>
  <varray name="positions" >
   <v>       0.33570592       0.65897100       0.50000000 </v>
   <v>       0.66429408       0.32259717       0.50000000 </v>
   <v>       0.59072925       0.67740283       0.64862867 </v>
   <v>       0.59072925       0.67740283       0.35137133 </v>
   <v>       0.51001658       0.60807167       0.50000000 </v>
   <v>       0.51001658       0.37091500       0.50000000 </v>
  </varray>
 </structure>
 <calculation>
  <scstep>
   <time name="dav">    0.13    0.13</time>
   <time name="total">    0.42    0.42</time>
   <energy>
    <i name="alphaZ">      3.45270409 </i>
    <i name="ewald">     46.02481115 </i>
    <i name="hartreedc">   -534.47760869 </i>
    <i name="XCdc">     50.62034931 </i>
    <i name="pawpsdc">    286.95514855 </i>
    <i name="pawaedc">   -289.99134475 </i>
    <i name="eentropy">      0.01308139 </i>
    <i name="bandstr">    -89.65292498 </i>
    <i name="atom">    628.94377035 </i>
    <i name="e_fr_energy">    101.88798643 </i>
    <i name="e_wo_entrp">    101.87490503 </i>
    <i name="e_0_energy">    101.88362596 </i>
   </energy>
  </scstep>
  <scstep>
   <time name="dav">    0.20    0.20</time>
   <time name="total">    0.20    0.22</time>
   <energy>
    <i name="e_fr_energy">    -20.75269205 </i>
    <i name="e_wo_entrp">    -20.76428786 </i>
    <i name="e_0_energy">    -20.75655732 </i>
   </energy>
  </scstep>
  <scstep>
   <time name="dav">    0.14    0.14</time>
   <time name="total">    0.14    0.21</time>
   <energy>
    <i name="e_fr_energy">    -33.07140034 </i>
    <i name="e_wo_entrp">    -33.08299615 </i>
    <i name="e_0_energy">    -33.07526561 </i>
   </energy>
  </scstep>
  <scstep>
   <time name="dav">    0.16    0.16</time>
   <time name="total">    0.16    0.17</time>
   <energy>
    <i name="e_fr_energy">    -33.46740373 </i>
    <i name="e_wo_entrp">    -33.47899954 </i>
    <i name="e_0_energy">    -33.47126900 </i>
   </energy>
  </scstep>
  <scstep>
   <time name="dav">    0.19    0.19</time>
   <time name="total">    0.23    0.25</time>
   <energy>
    <i name="e_fr_energy">    -33.48174314 </i>
    <i name="e_wo_entrp">    -33.49333896 </i>
    <i name="e_0_energy">    -33.48560841 </i>
   </energy>
  </scstep>
  <scstep>
   <time name="dav">    0.14    0.14</time>
   <time name="total">    0.46    0.54</time>
   <energy>
    <i name="e_fr_energy">    -30.78284172 </i>
    <i name="e_wo_entrp">    -30.79443753 </i>
    <i name="e_0_energy">    -30.78670699 </i>
   </energy>
  </scstep>
  <scstep>
   <time name="dav">    0.14    0.14</time>
   <time name="total">    0.46    0.48</time>
   <energy>
    <i name="e_fr_energy">    -30.26872895 </i>
    <i name="e_wo_entrp">    -30.28032476 </i>
    <i name="e_0_energy">    -30.27259422 </i>
   </energy>
  </scstep>
  <scstep>
   <time name="dav">    0.16    0.16</time>
   <time name="total">    0.48    0.54</time>
   <energy>
    <i name="e_fr_energy">    -30.14466834 </i>
    <i name="e_wo_entrp">    -30.15626415 </i>
    <i name="e_0_energy">    -30.14853361 </i>
   </energy>
  </scstep>
  <scstep>
   <time name="dav">    0.14    0.14</time>
   <time name="total">    0.46    0.48</time>
   <energy>
    <i name="e_fr_energy">    -30.14477650 </i>
    <i name="e_wo_entrp">    -30.15637231 </i>
    <i name="e_0_energy">    -30.14864177 </i>
   </energy>
  </scstep>
  <scstep>
   <time name="dav">    0.13    0.13</time>
   <time name="total">    0.45    0.46</time>
   <energy>
    <i name="e_fr_energy">    -30.14788019 </i>
    <i name="e_wo_entrp">    -30.15947600 </i>
    <i name="e_0_energy">    -30.15174546 </i>
   </energy>
  </scstep>
  <scstep>
   <time name="dav">    0.13    0.13</time>
   <time name="total">    0.45    0.51</time>
   <energy>
    <i name="e_fr_energy">    -30.15215864 </i>
    <i name="e_wo_entrp">    -30.16375445 </i>
    <i name="e_0_energy">    -30.15602391 </i>
   </energy>
  </scstep>
  <scstep>
   <time name="dav">    0.14    0.14</time>
   <time name="total">    0.46    0.48</time>
   <energy>
    <i name="e_fr_energy">    -30.15248101 </i>
    <i name="e_wo_entrp">    -30.16407682 </i>
    <i name="e_0_energy">    -30.15634628 </i>
   </energy>
  </scstep>
  <scstep>
   <time name="dav">    0.13    0.13</time>
   <time name="total">    0.45    0.52</time>
   <energy>
    <i name="e_fr_energy">    -30.15315680 </i>
    <i name="e_wo_entrp">    -30.16475261 </i>
    <i name="e_0_energy">    -30.15702207 </i>
   </energy>
  </scstep>
  <scstep>
   <time name="dav">    0.14    0.14</time>
   <time name="total">    0.46    0.48</time>
   <energy>
    <i name="e_fr_energy">    -30.15332799 </i>
    <i name="e_wo_entrp">    -30.16492380 </i>
    <i name="e_0_energy">    -30.15719326 </i>
   </energy>
  </scstep>
  <scstep>
   <time name="dav">    0.14    0.14</time>
   <time name="total">    0.42    0.47</time>
   <energy>
    <i name="alphaZ">      3.45270409 </i>
    <i name="ewald">     46.02481115 </i>
    <i name="hartreedc">   -592.02374782 </i>
    <i name="XCdc">     54.07142792 </i>
    <i name="pawpsdc">    406.71071209 </i>
    <i name="pawaedc">   -410.04166310 </i>
    <i name="eentropy">      0.01159581 </i>
    <i name="bandstr">   -167.30296554 </i>
    <i name="atom">    628.94377035 </i>
    <i name="e_fr_energy">    -30.15335505 </i>
    <i name="e_wo_entrp">    -30.16495086 </i>
    <i name="e_0_energy">    -30.15722032 </i>
   </energy>
  </scstep>
  <parameters_embedded>
   <separator name="dft+d2" >
    <i type="logical" name="LVDW"> F  </i>
   </separator>
  </parameters_embedded>
  <structure>
   <crystal>
    <varray name="basis" >
     <v>       6.00000000       0.00000000       0.00000000 </v>
     <v>       0.00000000       6.00000000       0.00000000 </v>
     <v>       0.00000000       0.00000000       6.00000000 </v>
    </varray>
    <i name="volume">    216.00000000 </i>
    <varray name="rec_basis" >
     <v>       0.16666667       0.00000000       0.00000000 </v>
     <v>       0.00000000       0.16666667       0.00000000 </v>
     <v>       0.00000000       0.00000000       0.16666667 </v>
    </varray>
   </crystal>
   <varray name="positions" >
    <v>       0.33570592       0.65897100       0.50000000 </v>
    <v>       0.66429408       0.32259717       0.50000000 </v>
    <v>       0.59072925       0.67740283       0.64862867 </v>
    <v>       0.59072925       0.67740283       0.35137133 </v>
    <v>       0.51001658       0.60807167       0.50000000 </v>
    <v>       0.51001658       0.37091500       0.50000000 </v>
   </varray>
  </structure>
  <varray name="forces" >
   <v>      -0.28767716       0.14487791       0.00000000 </v>
   <v>       0.10810504      -0.10986757       0.00000000 </v>
   <v>       0.10673991       0.08856164       0.25962564 </v>
   <v>       0.10673991       0.08856164      -0.25962564 </v>
   <v>      -0.07808529       0.18255689       0.00000000 </v>
   <v>       0.04417759      -0.39469052       0.00000000 </v>
  </varray>
  <varray name="stress" >
   <v>     -17.50546955      -1.73843009       0.00000000 </v>
   <v>      -1.73843455     -12.74056957       0.00000000 </v>
   <v>       0.00000000       0.00000000     -18.75708536 </v>
  </varray>
  <energy>
   <i name="e_fr_energy">    -30.15335505 </i>
   <i name="e_wo_entrp">    -30.15722032 </i>
   <i name="e_0_energy">      0.01159581 </i>
  </energy>
  <time name="totalsc">    6.75    7.81</time>
 </calculation>
 <calculation>
  <scstep>
   <time name="dav">    0.13    0.13</time>
   <time name="total">    0.45    0.45</time>
   <energy>
    <i name="alphaZ">      3.45270409 </i>
    <i name="ewald">     38.25888465 </i>
    <i name="hartreedc">   -586.34996800 </i>
    <i name="XCdc">     53.93379575 </i>
    <i name="pawpsdc">    406.73093951 </i>
    <i name="pawaedc">   -410.06190036 </i>
    <i name="eentropy">      0.01159581 </i>
    <i name="bandstr">   -165.07727438 </i>
    <i name="atom">    628.94377035 </i>
    <i name="e_fr_energy">    -30.15745258 </i>
    <i name="e_wo_entrp">    -30.16904839 </i>
    <i name="e_0_energy">    -30.16131785 </i>
   </energy>
  </scstep>
  <scstep>
   <time name="dav">    0.15    0.15</time>
   <time name="total">    0.47    0.49</time>
   <energy>
    <i name="e_fr_energy">    -30.15867358 </i>
    <i name="e_wo_entrp">    -30.17026939 </i>
    <i name="e_0_energy">    -30.16253885 </i>
   </energy>
  </scstep>
  <scstep>
   <time name="dav">    0.15    0.15</time>
   <time name="total">    0.47    0.52</time>
   <energy>
    <i name="e_fr_energy">    -30.15790416 </i>
    <i name="e_wo_entrp">    -30.16949997 </i>
    <i name="e_0_energy">    -30.16176943 </i>
   </energy>
  </scstep>
  <scstep>
   <time name="dav">    0.13    0.13</time>
   <time name="total">    0.40    0.42</time>
   <energy>
    <i name="alphaZ">      3.45270409 </i>
    <i name="ewald">     38.25888465 </i>
    <i name="hartreedc">   -585.10940715 </i>
    <i name="XCdc">     53.86991819 </i>
    <i name="pawpsdc">    402.58740736 </i>
    <i name="pawaedc">   -405.89616922 </i>
    <i name="eentropy">      0.01159581 </i>
    <i name="bandstr">   -166.27661916 </i>
    <i name="atom">    628.94377035 </i>
    <i name="e_fr_energy">    -30.15791508 </i>
    <i name="e_wo_entrp">    -30.16951089 </i>
    <i name="e_0_energy">    -30.16178035 </i>
   </energy>
  </scstep>
  <structure>
   <crystal>
    <varray name="basis" >
     <v>       6.00000000       0.00000000       0.00000000 </v>
     <v>       0.00000000       6.00000000       0.00000000 </v>
     <v>       0.00000000       0.00000000       6.00000000 </v>
    </varray>
    <i name="volume">    216.00000000 </i>
    <varray name="rec_basis" >
     <v>       0.16666667       0.00000000       0.00000000 </v>
     <v>       0.00000000       0.16666667       0.00000000 </v>
     <v>       0.00000000       0.00000000       0.16666667 </v>
    </varray>
   </crystal>
   <varray name="positions" >
    <v>       0.33339287       0.66013588       0.50000000 </v>
    <v>       0.66516330       0.32171378       0.50000000 </v>
    <v>       0.59158749       0.67811491       0.65071617 </v>
    <v>       0.59158749       0.67811491       0.34928383 </v>
    <v>       0.50938874       0.60953950       0.50000000 </v>
    <v>       0.51037179       0.36774151       0.50000000 </v>
   </varray>
  </structure>
  <varray name="forces" >
   <v>       0.03199283       0.00985417       0.00000000 </v>
   <v>       0.18230679      -0.09877602       0.00000000 </v>
   <v>      -0.08853074      -0.06687249      -0.09871219 </v>
   <v>      -0.08853074      -0.06687249       0.09871219 </v>
   <v>       0.04966622      -0.22716585       0.00000000 </v>
   <v>      -0.08690437       0.44983267       0.00000000 </v>
  </varray>
  <varray name="stress" >
   <v>     -20.81184160      -1.71254073       0.00000000 </v>
   <v>      -1.71253731     -23.36270123       0.00000000 </v>
   <v>       0.00000000       0.00000000     -23.49343919 </v>
  </varray>
  <energy>
   <i name="e_fr_energy">    -30.15791508 </i>
   <i name="e_wo_entrp">    -30.16178035 </i>
   <i name="e_0_energy">      0.01159581 </i>
  </energy>
  <time name="totalsc">    2.50    2.64</time>
 </calculation>
 <calculation>
  <scstep>
   <time name="dav">    0.13    0.13</time>
   <time name="total">    0.45    0.45</time>
   <energy>
    <i name="alphaZ">      3.45270409 </i>
    <i name="ewald">     41.22316487 </i>
    <i name="hartreedc">   -587.24031901 </i>
    <i name="XCdc">     53.91818191 </i>
    <i name="pawpsdc">    402.02039040 </i>
    <i name="pawaedc">   -405.32628800 </i>
    <i name="eentropy">      0.01159581 </i>
    <i name="bandstr">   -167.16362675 </i>
    <i name="atom">    628.94377035 </i>
    <i name="e_fr_energy">    -30.16042634 </i>
    <i name="e_wo_entrp">    -30.17202215 </i>
    <i name="e_0_energy">    -30.16429161 </i>
   </energy>
  </scstep>
  <scstep>
   <time name="dav">    0.15    0.15</time>
   <time name="total">    0.47    0.53</time>
   <energy>
    <i name="e_fr_energy">    -30.16077995 </i>
    <i name="e_wo_entrp">    -30.17237576 </i>
    <i name="e_0_energy">    -30.16464522 </i>
   </energy>
  </scstep>
  <scstep>
   <time name="dav">    0.14    0.14</time>
   <time name="total">    0.46    0.47</time>
   <energy>
    <i name="e_fr_energy">    -30.16065039 </i>
    <i name="e_wo_entrp">    -30.17224620 </i>
    <i name="e_0_energy">    -30.16451566 </i>
   </energy>
  </scstep>
  <scstep>
   <time name="dav">    0.13    0.13</time>
   <time name="total">    0.41    0.42</time>
   <energy>
    <i name="alphaZ">      3.45270409 </i>
    <i name="ewald">     41.22316487 </i>
    <i name="hartreedc">   -587.73169200 </i>
    <i name="XCdc">     53.94290201 </i>
    <i name="pawpsdc">    403.52385408 </i>
    <i name="pawaedc">   -406.83807320 </i>
    <i name="eentropy">      0.01159581 </i>
    <i name="bandstr">   -166.68887871 </i>
    <i name="atom">    628.94377035 </i>
    <i name="e_fr_energy">    -30.16065271 </i>
    <i name="e_wo_entrp">    -30.17224852 </i>
    <i name="e_0_energy">    -30.16451798 </i>
   </energy>
  </scstep>
  <structure>
   <crystal>
    <varray name="basis" >
     <v>       6.00000000       0.00000000       0.00000000 </v>
     <v>       0.00000000       6.00000000       0.00000000 </v>
     <v>       0.00000000       0.00000000       6.00000000 </v>
    </varray>
    <i name="volume">    216.00000000 </i>
    <varray name="rec_basis" >
     <v>       0.16666667       0.00000000       0.00000000 </v>
     <v>       0.00000000       0.16666667       0.00000000 </v>
     <v>       0.00000000       0.00000000       0.16666667 </v>
    </varray>
   </crystal>
   <varray name="positions" >
    <v>       0.33428475       0.65968672       0.50000000 </v>
    <v>       0.66482814       0.32205441       0.50000000 </v>
    <v>       0.59125656       0.67784034       0.64991125 </v>
    <v>       0.59125656       0.67784034       0.35008875 </v>
    <v>       0.50963083       0.60897352       0.50000000 </v>
    <v>       0.51023483       0.36896518       0.50000000 </v>
   </varray>
  </structure>
  <varray name="forces" >
   <v>      -0.08734927       0.06055954       0.00000000 </v>
   <v>       0.15330602      -0.10528891       0.00000000 </v>
   <v>      -0.01462770      -0.00853195       0.03547810 </v>
   <v>      -0.01462770      -0.00853195      -0.03547810 </v>
   <v>       0.00324726      -0.08419426       0.00000000 </v>
   <v>      -0.03994860       0.14598753       0.00000000 </v>
  </varray>
  <varray name="stress" >
   <v>     -19.37696939      -1.73534644       0.00000000 </v>
   <v>      -1.73534478     -19.21790022       0.00000000 </v>
   <v>       0.00000000       0.00000000     -21.44581013 </v>
  </varray>
  <energy>
   <i name="e_fr_energy">    -30.16065271 </i>
   <i name="e_wo_entrp">    -30.16451798 </i>
   <i name="e_0_energy">      0.01159581 </i>
  </energy>
  <time name="totalsc">    2.49    2.78</time>
 </calculation>
 <calculation>
  <scstep>
   <time name="dav">    0.14    0.14</time>
   <time name="total">    0.46    0.46</time>
   <energy>
    <i name="alphaZ">      3.45270409 </i>
    <i name="ewald">     40.26583095 </i>
    <i name="hartreedc">   -587.41466818 </i>
    <i name="XCdc">     53.90828810 </i>
    <i name="pawpsdc">    403.71875794 </i>
    <i name="pawaedc">   -407.03402392 </i>
    <i name="eentropy">      0.01159581 </i>
    <i name="bandstr">   -166.01143205 </i>
    <i name="atom">    628.94377035 </i>
    <i name="e_fr_energy">    -30.15917691 </i>
    <i name="e_wo_entrp">    -30.17077272 </i>
    <i name="e_0_energy">    -30.16304218 </i>
   </energy>
  </scstep>
  <scstep>
   <time name="dav">    0.13    0.13</time>
   <time name="total">    0.45    0.46</time>
   <energy>
    <i name="e_fr_energy">    -30.15947092 </i>
    <i name="e_wo_entrp">    -30.17106673 </i>
    <i name="e_0_energy">    -30.16333619 </i>
   </energy>
  </scstep>
  <scstep>
   <time name="dav">    0.14    0.14</time>
   <time name="total">    0.46    0.48</time>
   <energy>
    <i name="e_fr_energy">    -30.15935402 </i>
    <i name="e_wo_entrp">    -30.17094983 </i>
    <i name="e_0_energy">    -30.16321929 </i>
   </energy>
  </scstep>
  <scstep>
   <time name="dav">    0.13    0.13</time>
   <time name="total">    0.41    0.47</time>
   <energy>
    <i name="alphaZ">      3.45270409 </i>
    <i name="ewald">     40.26583095 </i>
    <i name="hartreedc">   -587.02044831 </i>
    <i name="XCdc">     53.88636804 </i>
    <i name="pawpsdc">    402.16491810 </i>
    <i name="pawaedc">   -405.47386269 </i>
    <i name="eentropy">      0.01159581 </i>
    <i name="bandstr">   -166.39022181 </i>
    <i name="atom">    628.94377035 </i>
    <i name="e_fr_energy">    -30.15934546 </i>
    <i name="e_wo_entrp">    -30.17094127 </i>
    <i name="e_0_energy">    -30.16321073 </i>
   </energy>
  </scstep>
  <structure>
   <crystal>
    <varray name="basis" >
     <v>       6.00000000       0.00000000       0.00000000 </v>
     <v>       0.00000000       6.00000000       0.00000000 </v>
     <v>       0.00000000       0.00000000       6.00000000 </v>
    </varray>
    <i name="volume">    216.00000000 </i>
    <varray name="rec_basis" >
     <v>       0.16666667       0.00000000       0.00000000 </v>
     <v>       0.00000000       0.16666667       0.00000000 </v>
     <v>       0.00000000       0.00000000       0.16666667 </v>
    </varray>
   </crystal>
   <varray name="positions" >
    <v>       0.33330151       0.66030484       0.50000000 </v>
    <v>       0.66609164       0.32114515       0.50000000 </v>
    <v>       0.59127234       0.67788018       0.65047692 </v>
    <v>       0.59127234       0.67788018       0.34952308 </v>
    <v>       0.50956398       0.60856140       0.50000000 </v>
    <v>       0.50998985       0.36958874       0.50000000 </v>
   </varray>
  </structure>
  <varray name="forces" >
   <v>       0.11122559      -0.01095527       0.00000000 </v>
   <v>      -0.35256938       0.07707823       0.00000000 </v>
   <v>      -0.06067352      -0.03892705      -0.06396213 </v>
   <v>      -0.06067352      -0.03892705       0.06396213 </v>
   <v>      -0.07864239       0.19896146       0.00000000 </v>
   <v>       0.44133322      -0.18723032       0.00000000 </v>
  </varray>
  <varray name="stress" >
   <v>     -24.66079260      -0.18373942       0.00000000 </v>
   <v>      -0.18374115     -18.33572431       0.00000000 </v>
   <v>       0.00000000       0.00000000     -22.78788415 </v>
  </varray>
  <energy>
   <i name="e_fr_energy">    -30.15934546 </i>
   <i name="e_wo_entrp">    -30.16321073 </i>
   <i name="e_0_energy">      0.01159581 </i>
  </energy>
  <time name="totalsc">    2.49    2.66</time>
 </calculation>
 <calculation>
  <scstep>
   <time name="dav">    0.14    0.14</time>
   <time name="total">    0.46    0.46</time>
   <energy>
    <i name="alphaZ">      3.45270409 </i>
    <i name="ewald">     40.86705655 </i>
    <i name="hartreedc">   -587.23262307 </i>
    <i name="XCdc">     53.90935570 </i>
    <i name="pawpsdc">    402.10178508 </i>
    <i name="pawaedc">   -405.41083382 </i>
    <i name="eentropy">      0.01159581 </i>
    <i name="bandstr">   -166.80399466 </i>
    <i name="atom">    628.94377035 </i>
    <i name="e_fr_energy">    -30.16118397 </i>
    <i name="e_wo_entrp">    -30.17277978 </i>
    <i name="e_0_energy">    -30.16504924 </i>
   </energy>
  </scstep>
  <scstep>
   <time name="dav">    0.13    0.13</time>
   <time name="total">    0.45    0.46</time>
   <energy>
    <i name="e_fr_energy">    -30.16132910 </i>
    <i name="e_wo_entrp">    -30.17292492 </i>
    <i name="e_0_energy">    -30.16519438 </i>
   </energy>
  </scstep>
  <scstep>
   <time name="dav">    0.14    0.14</time>
   <time name="total">    0.42    0.44</time>
   <energy>
    <i name="alphaZ">      3.45270409 </i>
    <i name="ewald">     40.86705655 </i>
    <i name="hartreedc">   -587.46957109 </i>
    <i name="XCdc">     53.92267091 </i>
    <i name="pawpsdc">    402.96136887 </i>
    <i name="pawaedc">   -406.27429517 </i>
    <i name="eentropy">      0.01159581 </i>
    <i name="bandstr">   -166.57658677 </i>
    <i name="atom">    628.94377035 </i>
    <i name="e_fr_energy">    -30.16128646 </i>
    <i name="e_wo_entrp">    -30.17288228 </i>
    <i name="e_0_energy">    -30.16515174 </i>
   </energy>
  </scstep>
  <structure>
   <crystal>
    <varray name="basis" >
     <v>       6.00000000       0.00000000       0.00000000 </v>
     <v>       0.00000000       6.00000000       0.00000000 </v>
     <v>       0.00000000       0.00000000       6.00000000 </v>
    </varray>
    <i name="volume">    216.00000000 </i>
    <varray name="rec_basis" >
     <v>       0.16666667       0.00000000       0.00000000 </v>
     <v>       0.00000000       0.16666667       0.00000000 </v>
     <v>       0.00000000       0.00000000       0.16666667 </v>
    </varray>
   </crystal>
   <varray name="positions" >
    <v>       0.33392348       0.65991383       0.50000000 </v>
    <v>       0.66529239       0.32172032       0.50000000 </v>
    <v>       0.59126236       0.67785498       0.65011909 </v>
    <v>       0.59126236       0.67785498       0.34988091 </v>
    <v>       0.50960627       0.60882210       0.50000000 </v>
    <v>       0.51014481       0.36919429       0.50000000 </v>
   </varray>
  </structure>
  <varray name="forces" >
   <v>      -0.01288852       0.03385393       0.00000000 </v>
   <v>      -0.03848599      -0.03610639       0.00000000 </v>
   <v>      -0.03146334      -0.01997836      -0.00051722 </v>
   <v>      -0.03146334      -0.01997836       0.00051722 </v>
   <v>      -0.02731295       0.02157876       0.00000000 </v>
   <v>       0.14161414       0.02063041       0.00000000 </v>
  </varray>
  <varray name="stress" >
   <v>     -21.53013149      -1.13549741       0.00000000 </v>
   <v>      -1.13549653     -18.85941163       0.00000000 </v>
   <v>       0.00000000       0.00000000     -21.97403790 </v>
  </varray>
  <energy>
   <i name="e_fr_energy">    -30.16128646 </i>
   <i name="e_wo_entrp">    -30.16515174 </i>
   <i name="e_0_energy">      0.01159581 </i>
  </energy>
  <time name="totalsc">    1.95    2.14</time>
  <eigenvalues>
   <array>
    <dimension dim="1">band</dimension>
    <dimension dim="2">kpoint</dimension>
    <dimension dim="3">spin</dimension>
    <field>eigene</field>
    <field>occ</field>
    <set>
     <set comment="spin 1">
      <set comment="kpoint 1">
       <r>  -24.4956    1.0000 </r>
       <r>  -15.8559    1.0000 </r>
       <r>  -11.4981    1.0000 </r>
       <r>   -9.6096    1.0000 </r>
       <r>   -9.3721    1.0000 </r>
       <r>   -7.1200    1.0000 </r>
       <r>   -5.3369    1.0000 </r>
       <r>   -0.6855    0.0000 </r>
       <r>    1.8921    0.0000 </r>
       <r>    2.4698    0.0000 </r>
       <r>    2.6466    0.0000 </r>
      </set>
     </set>
    </set>
   </array>
  </eigenvalues>
  <separator name="orbital magnetization" >
   <v name="MAGDIPOLOUT">      0.00000000      0.00000000      0.00000000</v>
  </separator>
  <dos>
   <i name="efermi">     -5.16856016 </i>
   <total>
    <array>
     <dimension dim="1">gridpoints</dimension>
     <dimension dim="2">spin</dimension>
     <field>energy</field>
     <field>total</field>
     <field>integrated</field>
     <set>
      <set comment="spin 1">
       <r>   -26.4956     0.0000     0.0000 </r>
       <r>   -26.3918     0.0000     0.0000 </r>
       <r>   -26.2879     0.0000     0.0000 </r>
       <r>   -26.1841     0.0000     0.0000 </r>
       <r>   -26.0803     0.0000     0.0000 </r>
       <r>   -25.9765     0.0000     0.0000 </r>
       <r>   -25.8727     0.0000     0.0000 </r>
       <r>   -25.7689     0.0000     0.0000 </r>
       <r>   -25.6651     0.0000     0.0000 </r>
       <r>   -25.5613     0.0000     0.0000 </r>
       <r>   -25.4575     0.0000     0.0000 </r>
       <r>   -25.3537     0.0000     0.0000 </r>
       <r>   -25.2499     0.0000     0.0000 </r>
       <r>   -25.1461    -0.0004     0.0000 </r>
       <r>   -25.0423    -0.0070    -0.0008 </r>
       <r>   -24.9385    -0.0652    -0.0075 </r>
       <r>   -24.8346    -0.2886    -0.0375 </r>
       <r>   -24.7308    -0.3146    -0.0701 </r>
       <r>   -24.6270     1.7528     0.1118 </r>
       <r>   -24.5232     6.3245     0.7683 </r>
       <r>   -24.4194     7.9684     1.5955 </r>
       <r>   -24.3156     4.1153     2.0227 </r>
       <r>   -24.2118     0.3798     2.0621 </r>
       <r>   -24.1080    -0.4112     2.0194 </r>
       <r>   -24.0042    -0.1603     2.0028 </r>
       <r>   -23.9004    -0.0249     2.0002 </r>
       <r>   -23.7966    -0.0020     2.0000 </r>
       <r>   -23.6928    -0.0001     2.0000 </r>
       <r>   -23.5890     0.0000     2.0000 </r>
       <r>   -23.4852     0.0000     2.0000 </r>
       <r>   -23.3813     0.0000     2.0000 </r>
       <r>   -23.2775     0.0000     2.0000 </r>
       <r>   -23.1737     0.0000     2.0000 </r>
       <r>   -23.0699     0.0000     2.0000 </r>
       <r>   -22.9661     0.0000     2.0000 </r>
       <r>   -22.8623     0.0000     2.0000 </r>
       <r>   -22.7585     0.0000     2.0000 </r>
       <r>   -22.6547     0.0000     2.0000 </r>
       <r>   -22.5509     0.0000     2.0000 </r>
       <r>   -22.4471     0.0000     2.0000 </r>
       <r>   -22.3433     0.0000     2.0000 </r>
       <r>   -22.2395     0.0000     2.0000 </r>
       <r>   -22.1357     0.0000     2.0000 </r>
       <r>   -22.0319     0.0000     2.0000 </r>
       <r>   -21.9280     0.0000     2.0000 </r>
       <r>   -21.8242     0.0000     2.0000 </r>
       <r>   -21.7204     0.0000     2.0000 </r>
       <r>   -21.6166     0.0000     2.0000 </r>
       <r>   -21.5128     0.0000     2.0000 </r>
       <r>   -21.4090     0.0000     2.0000 </r>
       <r>   -21.3052     0.0000     2.0000 </r>
       <r>   -21.2014     0.0000     2.0000 </r>
       <r>   -21.0976     0.0000     2.0000 </r>
       <r>   -20.9938     0.0000     2.0000 </r>
       <r>   -20.8900     0.0000     2.0000 </r>
       <r>   -20.7862     0.0000     2.0000 </r>
       <r>   -20.6824     0.0000     2.0000 </r>
       <r>   -20.5786     0.0000     2.0000 </r>
       <r>   -20.4748     0.0000     2.0000 </r>
       <r>   -20.3709     0.0000     2.0000 </r>
       <r>   -20.2671     0.0000     2.0000 </r>
       <r>   -20.1633     0.0000     2.0000 </r>
       <r>   -20.0595     0.0000     2.0000 </r>
       <r>   -19.9557     0.0000     2.0000 </r>
       <r>   -19.8519     0.0000     2.0000 </r>
       <r>   -19.7481     0.0000     2.0000 </r>
       <r>   -19.6443     0.0000     2.0000 </r>
       <r>   -19.5405     0.0000     2.0000 </r>
       <r>   -19.4367     0.0000     2.0000 </r>
       <r>   -19.3329     0.0000     2.0000 </r>
       <r>   -19.2291     0.0000     2.0000 </r>
       <r>   -19.1253     0.0000     2.0000 </r>
       <r>   -19.0215     0.0000     2.0000 </r>
       <r>   -18.9176     0.0000     2.0000 </r>
       <r>   -18.8138     0.0000     2.0000 </r>
       <r>   -18.7100     0.0000     2.0000 </r>
       <r>   -18.6062     0.0000     2.0000 </r>
       <r>   -18.5024     0.0000     2.0000 </r>
       <r>   -18.3986     0.0000     2.0000 </r>
       <r>   -18.2948     0.0000     2.0000 </r>
       <r>   -18.1910     0.0000     2.0000 </r>
       <r>   -18.0872     0.0000     2.0000 </r>
       <r>   -17.9834     0.0000     2.0000 </r>
       <r>   -17.8796     0.0000     2.0000 </r>
       <r>   -17.7758     0.0000     2.0000 </r>
       <r>   -17.6720     0.0000     2.0000 </r>
       <r>   -17.5682     0.0000     2.0000 </r>
       <r>   -17.4643     0.0000     2.0000 </r>
       <r>   -17.3605     0.0000     2.0000 </r>
       <r>   -17.2567     0.0000     2.0000 </r>
       <r>   -17.1529     0.0000     2.0000 </r>
       <r>   -17.0491     0.0000     2.0000 </r>
       <r>   -16.9453     0.0000     2.0000 </r>
       <r>   -16.8415     0.0000     2.0000 </r>
       <r>   -16.7377     0.0000     2.0000 </r>
       <r>   -16.6339     0.0000     2.0000 </r>
       <r>   -16.5301    -0.0002     2.0000 </r>
       <r>   -16.4263    -0.0038     1.9996 </r>
       <r>   -16.3225    -0.0416     1.9953 </r>
       <r>   -16.2187    -0.2224     1.9722 </r>
       <r>   -16.1149    -0.4020     1.9305 </r>
       <r>   -16.0110     0.9868     2.0329 </r>
       <r>   -15.9072     5.2811     2.5811 </r>
       <r>   -15.8034     8.1549     3.4276 </r>
       <r>   -15.6996     5.2276     3.9703 </r>
       <r>   -15.5958     0.9540     4.0693 </r>
       <r>   -15.4920    -0.4040     4.0274 </r>
       <r>   -15.3882    -0.2193     4.0046 </r>
       <r>   -15.2844    -0.0406     4.0004 </r>
       <r>   -15.1806    -0.0037     4.0000 </r>
       <r>   -15.0768    -0.0002     4.0000 </r>
       <r>   -14.9730     0.0000     4.0000 </r>
       <r>   -14.8692     0.0000     4.0000 </r>
       <r>   -14.7654     0.0000     4.0000 </r>
       <r>   -14.6616     0.0000     4.0000 </r>
       <r>   -14.5577     0.0000     4.0000 </r>
       <r>   -14.4539     0.0000     4.0000 </r>
       <r>   -14.3501     0.0000     4.0000 </r>
       <r>   -14.2463     0.0000     4.0000 </r>
       <r>   -14.1425     0.0000     4.0000 </r>
       <r>   -14.0387     0.0000     4.0000 </r>
       <r>   -13.9349     0.0000     4.0000 </r>
       <r>   -13.8311     0.0000     4.0000 </r>
       <r>   -13.7273     0.0000     4.0000 </r>
       <r>   -13.6235     0.0000     4.0000 </r>
       <r>   -13.5197     0.0000     4.0000 </r>
       <r>   -13.4159     0.0000     4.0000 </r>
       <r>   -13.3121     0.0000     4.0000 </r>
       <r>   -13.2083     0.0000     4.0000 </r>
       <r>   -13.1045     0.0000     4.0000 </r>
       <r>   -13.0006     0.0000     4.0000 </r>
       <r>   -12.8968     0.0000     4.0000 </r>
       <r>   -12.7930     0.0000     4.0000 </r>
       <r>   -12.6892     0.0000     4.0000 </r>
       <r>   -12.5854     0.0000     4.0000 </r>
       <r>   -12.4816     0.0000     4.0000 </r>
       <r>   -12.3778     0.0000     4.0000 </r>
       <r>   -12.2740     0.0000     4.0000 </r>
       <r>   -12.1702    -0.0002     4.0000 </r>
       <r>   -12.0664    -0.0040     3.9996 </r>
       <r>   -11.9626    -0.0433     3.9951 </r>
       <r>   -11.8588    -0.2281     3.9714 </r>
       <r>   -11.7550    -0.3978     3.9301 </r>
       <r>   -11.6512     1.0478     4.0389 </r>
       <r>   -11.5473     5.3785     4.5972 </r>
       <r>   -11.4435     8.1526     5.4435 </r>
       <r>   -11.3397     5.1293     5.9760 </r>
       <r>   -11.2359     0.8952     6.0689 </r>
       <r>   -11.1321    -0.4073     6.0266 </r>
       <r>   -11.0283    -0.2137     6.0044 </r>
       <r>   -10.9245    -0.0389     6.0004 </r>
       <r>   -10.8207    -0.0035     6.0000 </r>
       <r>   -10.7169    -0.0002     6.0000 </r>
       <r>   -10.6131     0.0000     6.0000 </r>
       <r>   -10.5093     0.0000     6.0000 </r>
       <r>   -10.4055     0.0000     6.0000 </r>
       <r>   -10.3017    -0.0001     6.0000 </r>
       <r>   -10.1979    -0.0024     5.9997 </r>
       <r>   -10.0940    -0.0289     5.9967 </r>
       <r>    -9.9902    -0.1777     5.9783 </r>
       <r>    -9.8864    -0.4301     5.9336 </r>
       <r>    -9.7826     0.4160     5.9768 </r>
       <r>    -9.6788     4.0687     6.3992 </r>
       <r>    -9.5750     8.0513     7.2350 </r>
       <r>    -9.4712     9.0941     8.1790 </r>
       <r>    -9.3674     8.9761     9.1108 </r>
       <r>    -9.2636     6.8294     9.8197 </r>
       <r>    -9.1598     2.3858    10.0674 </r>
       <r>    -9.0560    -0.1814    10.0486 </r>
       <r>    -8.9522    -0.3573    10.0115 </r>
       <r>    -8.8484    -0.0975    10.0013 </r>
       <r>    -8.7446    -0.0121    10.0001 </r>
       <r>    -8.6407    -0.0008    10.0000 </r>
       <r>    -8.5369     0.0000    10.0000 </r>
       <r>    -8.4331     0.0000    10.0000 </r>
       <r>    -8.3293     0.0000    10.0000 </r>
       <r>    -8.2255     0.0000    10.0000 </r>
       <r>    -8.1217     0.0000    10.0000 </r>
       <r>    -8.0179     0.0000    10.0000 </r>
       <r>    -7.9141     0.0000    10.0000 </r>
       <r>    -7.8103    -0.0001    10.0000 </r>
       <r>    -7.7065    -0.0025     9.9997 </r>
       <r>    -7.6027    -0.0300     9.9966 </r>
       <r>    -7.4989    -0.1809     9.9778 </r>
       <r>    -7.3951    -0.4154     9.9347 </r>
       <r>    -7.2913     0.5696     9.9939 </r>
       <r>    -7.1875     4.5254    10.4636 </r>
       <r>    -7.0836     8.0778    11.3021 </r>
       <r>    -6.9798     5.9551    11.9203 </r>
       <r>    -6.8760     1.4505    12.0709 </r>
       <r>    -6.7722    -0.3578    12.0338 </r>
       <r>    -6.6684    -0.2639    12.0064 </r>
       <r>    -6.5646    -0.0555    12.0006 </r>
       <r>    -6.4608    -0.0056    12.0000 </r>
       <r>    -6.3570    -0.0003    12.0000 </r>
       <r>    -6.2532     0.0000    12.0000 </r>
       <r>    -6.1494     0.0000    12.0000 </r>
       <r>    -6.0456    -0.0001    12.0000 </r>
       <r>    -5.9418    -0.0015    11.9998 </r>
       <r>    -5.8380    -0.0202    11.9977 </r>
       <r>    -5.7342    -0.1393    11.9833 </r>
       <r>    -5.6303    -0.3995    11.9418 </r>
       <r>    -5.5265     0.1972    11.9623 </r>
       <r>    -5.4227     3.6650    12.3427 </r>
       <r>    -5.3189     7.7935    13.1518 </r>
       <r>    -5.2151     6.7082    13.8481 </r>
       <r>    -5.1113     2.1148    14.0676 </r>
       <r>    -5.0075    -0.2490    14.0418 </r>
       <r>    -4.9037    -0.3159    14.0090 </r>
       <r>    -4.7999    -0.0774    14.0010 </r>
       <r>    -4.6961    -0.0088    14.0001 </r>
       <r>    -4.5923    -0.0005    14.0000 </r>
       <r>    -4.4885     0.0000    14.0000 </r>
       <r>    -4.3847     0.0000    14.0000 </r>
       <r>    -4.2809     0.0000    14.0000 </r>
       <r>    -4.1770     0.0000    14.0000 </r>
       <r>    -4.0732     0.0000    14.0000 </r>
       <r>    -3.9694     0.0000    14.0000 </r>
       <r>    -3.8656     0.0000    14.0000 </r>
       <r>    -3.7618     0.0000    14.0000 </r>
       <r>    -3.6580     0.0000    14.0000 </r>
       <r>    -3.5542     0.0000    14.0000 </r>
       <r>    -3.4504     0.0000    14.0000 </r>
       <r>    -3.3466     0.0000    14.0000 </r>
       <r>    -3.2428     0.0000    14.0000 </r>
       <r>    -3.1390     0.0000    14.0000 </r>
       <r>    -3.0352     0.0000    14.0000 </r>
       <r>    -2.9314     0.0000    14.0000 </r>
       <r>    -2.8276     0.0000    14.0000 </r>
       <r>    -2.7237     0.0000    14.0000 </r>
       <r>    -2.6199     0.0000    14.0000 </r>
       <r>    -2.5161     0.0000    14.0000 </r>
       <r>    -2.4123     0.0000    14.0000 </r>
       <r>    -2.3085     0.0000    14.0000 </r>
       <r>    -2.2047     0.0000    14.0000 </r>
       <r>    -2.1009     0.0000    14.0000 </r>
       <r>    -1.9971     0.0000    14.0000 </r>
       <r>    -1.8933     0.0000    14.0000 </r>
       <r>    -1.7895     0.0000    14.0000 </r>
       <r>    -1.6857     0.0000    14.0000 </r>
       <r>    -1.5819     0.0000    14.0000 </r>
       <r>    -1.4781     0.0000    14.0000 </r>
       <r>    -1.3743    -0.0001    14.0000 </r>
       <r>    -1.2704    -0.0026    13.9997 </r>
       <r>    -1.1666    -0.0309    13.9965 </r>
       <r>    -1.0628    -0.1846    13.9774 </r>
       <r>    -0.9590    -0.4153    13.9342 </r>
       <r>    -0.8552     0.6049    13.9970 </r>
       <r>    -0.7514     4.5964    14.4742 </r>
       <r>    -0.6476     8.0920    15.3142 </r>
       <r>    -0.5438     5.8893    15.9255 </r>
       <r>    -0.4400     1.4006    16.0709 </r>
       <r>    -0.3362    -0.3638    16.0331 </r>
       <r>    -0.2324    -0.2597    16.0062 </r>
       <r>    -0.1286    -0.0539    16.0006 </r>
       <r>    -0.0248    -0.0054    16.0000 </r>
       <r>     0.0790    -0.0003    16.0000 </r>
       <r>     0.1828     0.0000    16.0000 </r>
       <r>     0.2867     0.0000    16.0000 </r>
       <r>     0.3905     0.0000    16.0000 </r>
       <r>     0.4943     0.0000    16.0000 </r>
       <r>     0.5981     0.0000    16.0000 </r>
       <r>     0.7019     0.0000    16.0000 </r>
       <r>     0.8057     0.0000    16.0000 </r>
       <r>     0.9095     0.0000    16.0000 </r>
       <r>     1.0133     0.0000    16.0000 </r>
       <r>     1.1171     0.0000    16.0000 </r>
       <r>     1.2209    -0.0002    16.0000 </r>
       <r>     1.3247    -0.0041    15.9995 </r>
       <r>     1.4285    -0.0441    15.9950 </r>
       <r>     1.5323    -0.2306    15.9710 </r>
       <r>     1.6361    -0.3958    15.9299 </r>
       <r>     1.7400     1.0747    16.0415 </r>
       <r>     1.8438     5.4196    16.6041 </r>
       <r>     1.9476     8.1382    17.4489 </r>
       <r>     2.0514     4.9851    17.9664 </r>
       <r>     2.1552     0.4901    18.0173 </r>
       <r>     2.2590    -0.6760    17.9471 </r>
       <r>     2.3628     2.0960    18.1647 </r>
       <r>     2.4666     7.5697    18.9504 </r>
       <r>     2.5704    11.5357    20.1479 </r>
       <r>     2.6742    10.9651    21.2862 </r>
       <r>     2.7780     6.2962    21.9398 </r>
       <r>     2.8818     1.3821    22.0833 </r>
       <r>     2.9856    -0.4253    22.0391 </r>
       <r>     3.0894    -0.3032    22.0076 </r>
       <r>     3.1933    -0.0661    22.0008 </r>
       <r>     3.2971    -0.0070    22.0000 </r>
       <r>     3.4009    -0.0004    22.0000 </r>
       <r>     3.5047     0.0000    22.0000 </r>
       <r>     3.6085     0.0000    22.0000 </r>
       <r>     3.7123     0.0000    22.0000 </r>
       <r>     3.8161     0.0000    22.0000 </r>
       <r>     3.9199     0.0000    22.0000 </r>
       <r>     4.0237     0.0000    22.0000 </r>
       <r>     4.1275     0.0000    22.0000 </r>
       <r>     4.2313     0.0000    22.0000 </r>
       <r>     4.3351     0.0000    22.0000 </r>
       <r>     4.4389     0.0000    22.0000 </r>
       <r>     4.5427     0.0000    22.0000 </r>
       <r>     4.6466     0.0000    22.0000 </r>
      </set>
     </set>
    </array>
   </total>
  </dos>
 </calculation>
 <structure name="finalpos" >
  <crystal>
   <varray name="basis" >
    <v>       6.00000000       0.00000000       0.00000000 </v>
    <v>       0.00000000       6.00000000       0.00000000 </v>
    <v>       0.00000000       0.00000000       6.00000000 </v>
   </varray>
   <i name="volume">    216.00000000 </i>
   <varray name="rec_basis" >
    <v>       0.16666667       0.00000000       0.00000000 </v>
    <v>       0.00000000       0.16666667       0.00000000 </v>
    <v>       0.00000000       0.00000000       0.16666667 </v>
   </varray>
  </crystal>
  <varray name="positions" >
   <v>       0.33392348       0.65991383       0.50000000 </v>
   <v>       0.66529239       0.32172032       0.50000000 </v>
   <v>       0.59126236       0.67785498       0.65011909 </v>
   <v>       0.59126236       0.67785498       0.34988091 </v>
   <v>       0.50960627       0.60882210       0.50000000 </v>
   <v>       0.51014481       0.36919429       0.50000000 </v>
  </varray>
 </structure>
</modeling>
