   2   2   0   0
  0.2560000E+03  0.8000000E-09  0.8000000E-09  0.8000000E-09  0.5000000E-15
  1.000000000000000E-004
  CAR 
 unknown system                          
      3.91714260    -35.22072535  301     -5.73482640      1.00000000
    -35.221  0.0000E+00  0.0000E+00  0.0000E+00  0.0000E+00
    -35.090  0.0000E+00  0.0000E+00  0.0000E+00  0.0000E+00
    -34.960  0.0000E+00  0.0000E+00  0.0000E+00  0.0000E+00
    -34.829  0.0000E+00  0.0000E+00  0.0000E+00  0.0000E+00
    -34.699  0.0000E+00  0.0000E+00  0.0000E+00  0.0000E+00
    -34.568  0.0000E+00  0.0000E+00  0.0000E+00  0.0000E+00
    -34.438  0.0000E+00  0.0000E+00  0.0000E+00  0.0000E+00
    -34.308  0.5872E-14  0.0000E+00  0.7661E-15  0.0000E+00
    -34.177  0.5202E-11  0.0000E+00  0.6794E-12  0.0000E+00
    -34.047  0.1999E-08  0.0000E+00  0.2614E-09  0.0000E+00
    -33.916  0.3344E-06  0.0000E+00  0.4388E-07  0.0000E+00
    -33.786  0.2448E-04  0.0000E+00  0.3238E-05  0.0000E+00
    -33.655  0.7894E-03  0.0000E+00  0.1062E-03  0.0000E+00
    -33.525  0.1129E-01  0.0000E+00  0.1579E-02  0.0000E+00
    -33.394  0.7211E-01  0.0000E+00  0.1099E-01  0.0000E+00
    -33.264  0.2073E+00  0.0000E+00  0.3803E-01  0.0000E+00
    -33.133  0.2693E+00  0.4681E-15  0.7316E-01  0.6106E-16
    -33.003  0.1584E+00  0.5660E-12  0.9382E-01  0.7391E-13
    -32.872  0.4205E-01  0.2889E-09  0.9931E-01  0.3777E-10
    -32.742  0.5013E-02  0.6413E-07  0.9996E-01  0.8405E-08
    -32.612  0.2663E-03  0.6219E-05  0.1000E+00  0.8197E-06
    -32.481  0.6259E-05  0.2650E-03  0.1000E+00  0.3539E-04
    -32.351  0.6463E-07  0.4993E-02  0.1000E+00  0.6868E-03
    -32.220  0.2915E-09  0.4194E-01  0.1000E+00  0.6159E-02
    -32.090  0.5719E-12  0.1582E+00  0.1000E+00  0.2679E-01
    -31.959  0.5106E-15  0.2693E+00  0.1000E+00  0.6192E-01
    -31.829  0.0000E+00  0.2075E+00  0.1000E+00  0.8899E-01
    -31.698  0.0000E+00  0.7227E-01  0.1000E+00  0.9842E-01
    -31.568  0.0000E+00  0.1133E-01  0.1000E+00  0.9989E-01
    -31.437  0.0000E+00  0.7931E-03  0.1000E+00  0.1000E+00
    -31.307  0.0000E+00  0.2463E-04  0.1000E+00  0.1000E+00
    -31.176  0.0000E+00  0.3368E-06  0.1000E+00  0.1000E+00
    -31.046  0.0000E+00  0.2016E-08  0.1000E+00  0.1000E+00
    -30.916  0.0000E+00  0.5254E-11  0.1000E+00  0.1000E+00
    -30.785  0.0000E+00  0.5957E-14  0.1000E+00  0.1000E+00
    -30.655  0.0000E+00  0.0000E+00  0.1000E+00  0.1000E+00
    -30.524  0.0000E+00  0.0000E+00  0.1000E+00  0.1000E+00
    -30.394  0.0000E+00  0.0000E+00  0.1000E+00  0.1000E+00
    -30.263  0.0000E+00  0.0000E+00  0.1000E+00  0.1000E+00
    -30.133  0.0000E+00  0.0000E+00  0.1000E+00  0.1000E+00
    -30.002  0.0000E+00  0.0000E+00  0.1000E+00  0.1000E+00
    -29.872  0.0000E+00  0.0000E+00  0.1000E+00  0.1000E+00
    -29.741  0.0000E+00  0.0000E+00  0.1000E+00  0.1000E+00
    -29.611  0.0000E+00  0.0000E+00  0.1000E+00  0.1000E+00
    -29.481  0.0000E+00  0.0000E+00  0.1000E+00  0.1000E+00
    -29.350  0.0000E+00  0.0000E+00  0.1000E+00  0.1000E+00
    -29.220  0.0000E+00  0.0000E+00  0.1000E+00  0.1000E+00
    -29.089  0.0000E+00  0.0000E+00  0.1000E+00  0.1000E+00
    -28.959  0.0000E+00  0.0000E+00  0.1000E+00  0.1000E+00
    -28.828  0.0000E+00  0.0000E+00  0.1000E+00  0.1000E+00
    -28.698  0.0000E+00  0.0000E+00  0.1000E+00  0.1000E+00
    -28.567  0.0000E+00  0.0000E+00  0.1000E+00  0.1000E+00
    -28.437  0.0000E+00  0.0000E+00  0.1000E+00  0.1000E+00
    -28.306  0.0000E+00  0.0000E+00  0.1000E+00  0.1000E+00
    -28.176  0.0000E+00  0.0000E+00  0.1000E+00  0.1000E+00
    -28.045  0.0000E+00  0.0000E+00  0.1000E+00  0.1000E+00
    -27.915  0.0000E+00  0.0000E+00  0.1000E+00  0.1000E+00
    -27.785  0.0000E+00  0.0000E+00  0.1000E+00  0.1000E+00
    -27.654  0.0000E+00  0.0000E+00  0.1000E+00  0.1000E+00
    -27.524  0.0000E+00  0.0000E+00  0.1000E+00  0.1000E+00
    -27.393  0.0000E+00  0.0000E+00  0.1000E+00  0.1000E+00
    -27.263  0.0000E+00  0.0000E+00  0.1000E+00  0.1000E+00
    -27.132  0.0000E+00  0.0000E+00  0.1000E+00  0.1000E+00
    -27.002  0.0000E+00  0.0000E+00  0.1000E+00  0.1000E+00
    -26.871  0.0000E+00  0.0000E+00  0.1000E+00  0.1000E+00
    -26.741  0.0000E+00  0.0000E+00  0.1000E+00  0.1000E+00
    -26.610  0.0000E+00  0.0000E+00  0.1000E+00  0.1000E+00
    -26.480  0.0000E+00  0.0000E+00  0.1000E+00  0.1000E+00
    -26.349  0.0000E+00  0.0000E+00  0.1000E+00  0.1000E+00
    -26.219  0.0000E+00  0.0000E+00  0.1000E+00  0.1000E+00
    -26.089  0.0000E+00  0.0000E+00  0.1000E+00  0.1000E+00
    -25.958  0.0000E+00  0.0000E+00  0.1000E+00  0.1000E+00
    -25.828  0.0000E+00  0.0000E+00  0.1000E+00  0.1000E+00
    -25.697  0.0000E+00  0.0000E+00  0.1000E+00  0.1000E+00
    -25.567  0.0000E+00  0.0000E+00  0.1000E+00  0.1000E+00
    -25.436  0.0000E+00  0.0000E+00  0.1000E+00  0.1000E+00
    -25.306  0.0000E+00  0.0000E+00  0.1000E+00  0.1000E+00
    -25.175  0.0000E+00  0.0000E+00  0.1000E+00  0.1000E+00
    -25.045  0.0000E+00  0.0000E+00  0.1000E+00  0.1000E+00
    -24.914  0.0000E+00  0.0000E+00  0.1000E+00  0.1000E+00
    -24.784  0.0000E+00  0.0000E+00  0.1000E+00  0.1000E+00
    -24.654  0.0000E+00  0.0000E+00  0.1000E+00  0.1000E+00
    -24.523  0.0000E+00  0.0000E+00  0.1000E+00  0.1000E+00
    -24.393  0.0000E+00  0.0000E+00  0.1000E+00  0.1000E+00
    -24.262  0.0000E+00  0.0000E+00  0.1000E+00  0.1000E+00
    -24.132  0.0000E+00  0.0000E+00  0.1000E+00  0.1000E+00
    -24.001  0.0000E+00  0.0000E+00  0.1000E+00  0.1000E+00
    -23.871  0.0000E+00  0.0000E+00  0.1000E+00  0.1000E+00
    -23.740  0.0000E+00  0.0000E+00  0.1000E+00  0.1000E+00
    -23.610  0.0000E+00  0.0000E+00  0.1000E+00  0.1000E+00
    -23.479  0.0000E+00  0.0000E+00  0.1000E+00  0.1000E+00
    -23.349  0.0000E+00  0.0000E+00  0.1000E+00  0.1000E+00
    -23.218  0.0000E+00  0.0000E+00  0.1000E+00  0.1000E+00
    -23.088  0.0000E+00  0.0000E+00  0.1000E+00  0.1000E+00
    -22.958  0.0000E+00  0.0000E+00  0.1000E+00  0.1000E+00
    -22.827  0.0000E+00  0.0000E+00  0.1000E+00  0.1000E+00
    -22.697  0.0000E+00  0.0000E+00  0.1000E+00  0.1000E+00
    -22.566  0.0000E+00  0.0000E+00  0.1000E+00  0.1000E+00
    -22.436  0.0000E+00  0.0000E+00  0.1000E+00  0.1000E+00
    -22.305  0.0000E+00  0.0000E+00  0.1000E+00  0.1000E+00
    -22.175  0.3404E-15  0.0000E+00  0.1000E+00  0.1000E+00
    -22.044  0.3971E-12  0.0000E+00  0.1000E+00  0.1000E+00
    -21.914  0.2119E-09  0.0000E+00  0.1000E+00  0.1000E+00
    -21.783  0.4916E-07  0.0000E+00  0.1000E+00  0.1000E+00
    -21.653  0.4980E-05  0.0000E+00  0.1000E+00  0.1000E+00
    -21.522  0.2216E-03  0.0000E+00  0.1000E+00  0.1000E+00
    -21.392  0.4361E-02  0.0000E+00  0.1006E+00  0.1000E+00
    -21.262  0.3823E-01  0.0000E+00  0.1056E+00  0.1000E+00
    -21.131  0.1504E+00  0.0000E+00  0.1252E+00  0.1000E+00
    -21.001  0.2670E+00  0.0000E+00  0.1600E+00  0.1000E+00
    -20.870  0.2146E+00  0.0000E+00  0.1880E+00  0.1000E+00
    -20.740  0.7798E-01  0.0000E+00  0.1982E+00  0.1000E+00
    -20.609  0.1275E-01  0.0000E+00  0.1999E+00  0.1000E+00
    -20.479  0.9321E-03  0.0000E+00  0.2000E+00  0.1000E+00
    -20.348  0.3023E-04  0.8340E-14  0.2000E+00  0.1000E+00
    -20.218  0.4319E-06  0.7084E-11  0.2000E+00  0.1000E+00
    -20.087  0.2701E-08  0.2613E-08  0.2000E+00  0.1000E+00
    -19.957  0.7358E-11  0.4200E-06  0.2000E+00  0.1000E+00
    -19.826  0.8680E-14  0.2954E-04  0.2000E+00  0.1000E+00
    -19.696  0.0000E+00  0.9154E-03  0.2000E+00  0.1001E+00
    -19.566  0.0000E+00  0.1258E-01  0.2000E+00  0.1018E+00
    -19.435  0.0000E+00  0.7732E-01  0.2000E+00  0.1119E+00
    -19.305  0.0000E+00  0.2138E+00  0.2000E+00  0.1397E+00
    -19.174  0.0000E+00  0.2673E+00  0.2000E+00  0.1746E+00
    -19.044  0.0000E+00  0.1513E+00  0.2000E+00  0.1944E+00
    -18.913  0.0000E+00  0.3863E-01  0.2000E+00  0.1994E+00
    -18.783  0.0000E+00  0.4428E-02  0.2000E+00  0.2000E+00
    -18.652  0.0000E+00  0.2262E-03  0.2000E+00  0.2000E+00
    -18.522  0.0000E+00  0.5108E-05  0.2000E+00  0.2000E+00
    -18.391  0.0000E+00  0.5066E-07  0.2000E+00  0.2000E+00
    -18.261  0.0000E+00  0.2195E-09  0.2000E+00  0.2000E+00
    -18.131  0.0000E+00  0.4134E-12  0.2000E+00  0.2000E+00
    -18.000  0.0000E+00  0.3404E-15  0.2000E+00  0.2000E+00
    -17.870  0.0000E+00  0.0000E+00  0.2000E+00  0.2000E+00
    -17.739  0.0000E+00  0.0000E+00  0.2000E+00  0.2000E+00
    -17.609  0.0000E+00  0.0000E+00  0.2000E+00  0.2000E+00
    -17.478  0.0000E+00  0.0000E+00  0.2000E+00  0.2000E+00
    -17.348  0.0000E+00  0.0000E+00  0.2000E+00  0.2000E+00
    -17.217  0.0000E+00  0.0000E+00  0.2000E+00  0.2000E+00
    -17.087  0.0000E+00  0.0000E+00  0.2000E+00  0.2000E+00
    -16.956  0.0000E+00  0.0000E+00  0.2000E+00  0.2000E+00
    -16.826  0.0000E+00  0.0000E+00  0.2000E+00  0.2000E+00
    -16.695  0.0000E+00  0.0000E+00  0.2000E+00  0.2000E+00
    -16.565  0.0000E+00  0.0000E+00  0.2000E+00  0.2000E+00
    -16.435  0.0000E+00  0.0000E+00  0.2000E+00  0.2000E+00
    -16.304  0.0000E+00  0.0000E+00  0.2000E+00  0.2000E+00
    -16.174  0.0000E+00  0.0000E+00  0.2000E+00  0.2000E+00
    -16.043  0.0000E+00  0.0000E+00  0.2000E+00  0.2000E+00
    -15.913  0.0000E+00  0.0000E+00  0.2000E+00  0.2000E+00
    -15.782  0.0000E+00  0.0000E+00  0.2000E+00  0.2000E+00
    -15.652  0.0000E+00  0.0000E+00  0.2000E+00  0.2000E+00
    -15.521  0.0000E+00  0.0000E+00  0.2000E+00  0.2000E+00
    -15.391  0.0000E+00  0.0000E+00  0.2000E+00  0.2000E+00
    -15.260  0.0000E+00  0.0000E+00  0.2000E+00  0.2000E+00
    -15.130  0.0000E+00  0.0000E+00  0.2000E+00  0.2000E+00
    -14.999  0.0000E+00  0.0000E+00  0.2000E+00  0.2000E+00
    -14.869  0.0000E+00  0.0000E+00  0.2000E+00  0.2000E+00
    -14.739  0.0000E+00  0.0000E+00  0.2000E+00  0.2000E+00
    -14.608  0.4255E-16  0.0000E+00  0.2000E+00  0.2000E+00
    -14.478  0.9450E-13  0.0000E+00  0.2000E+00  0.2000E+00
    -14.347  0.6109E-10  0.0000E+00  0.2000E+00  0.2000E+00
    -14.217  0.1731E-07  0.0000E+00  0.2000E+00  0.2000E+00
    -14.086  0.2173E-05  0.0000E+00  0.2000E+00  0.2000E+00
    -13.956  0.1224E-03  0.0000E+00  0.2000E+00  0.2000E+00
    -13.825  0.3150E-02  0.0000E+00  0.2004E+00  0.2000E+00
    -13.695  0.3780E-01  0.2128E-15  0.2054E+00  0.2000E+00
    -13.564  0.2155E+00  0.2767E-12  0.2335E+00  0.2000E+00
    -13.434  0.5914E+00  0.1544E-09  0.3106E+00  0.2000E+00
    -13.304  0.7833E+00  0.3745E-07  0.4128E+00  0.2000E+00
    -13.173  0.4971E+00  0.3967E-05  0.4777E+00  0.2000E+00
    -13.043  0.1490E+00  0.1845E-03  0.4971E+00  0.2000E+00
    -12.912  0.2074E-01  0.3792E-02  0.4998E+00  0.2005E+00
    -12.782  0.1317E-02  0.3471E-01  0.5000E+00  0.2050E+00
    -12.651  0.3758E-04  0.1426E+00  0.5000E+00  0.2236E+00
    -12.521  0.4760E-06  0.2642E+00  0.5000E+00  0.2581E+00
    -12.390  0.2652E-08  0.2216E+00  0.5000E+00  0.2870E+00
    -12.260  0.6453E-11  0.8403E-01  0.5000E+00  0.2980E+00
    -12.129  0.6808E-14  0.1442E-01  0.5000E+00  0.2999E+00
    -11.999  0.0000E+00  0.3294E-02  0.5000E+00  0.3003E+00
    -11.868  0.0000E+00  0.2881E-01  0.5000E+00  0.3040E+00
    -11.738  0.0000E+00  0.1683E+00  0.5000E+00  0.3260E+00
    -11.608  0.0000E+00  0.4435E+00  0.5000E+00  0.3839E+00
    -11.477  0.0000E+00  0.5282E+00  0.5000E+00  0.4528E+00
    -11.347  0.0000E+00  0.2848E+00  0.5000E+00  0.4899E+00
    -11.216  0.0000E+00  0.6927E-01  0.5000E+00  0.4990E+00
    -11.086  0.0000E+00  0.7560E-02  0.5000E+00  0.5000E+00
    -10.955  0.0000E+00  0.3674E-03  0.5000E+00  0.5000E+00
    -10.825  0.0000E+00  0.7893E-05  0.5000E+00  0.5000E+00
    -10.694  0.0000E+00  0.7444E-07  0.5000E+00  0.5000E+00
    -10.564  0.0000E+00  0.3065E-09  0.5000E+00  0.5000E+00
    -10.433  0.0000E+00  0.5487E-12  0.5000E+00  0.5000E+00
    -10.303  0.0000E+00  0.3404E-15  0.5000E+00  0.5000E+00
    -10.172  0.0000E+00  0.0000E+00  0.5000E+00  0.5000E+00
    -10.042  0.0000E+00  0.0000E+00  0.5000E+00  0.5000E+00
     -9.912  0.0000E+00  0.0000E+00  0.5000E+00  0.5000E+00
     -9.781  0.0000E+00  0.0000E+00  0.5000E+00  0.5000E+00
     -9.651  0.0000E+00  0.0000E+00  0.5000E+00  0.5000E+00
     -9.520  0.0000E+00  0.0000E+00  0.5000E+00  0.5000E+00
     -9.390  0.0000E+00  0.0000E+00  0.5000E+00  0.5000E+00
     -9.259  0.0000E+00  0.0000E+00  0.5000E+00  0.5000E+00
     -9.129  0.0000E+00  0.0000E+00  0.5000E+00  0.5000E+00
     -8.998  0.0000E+00  0.0000E+00  0.5000E+00  0.5000E+00
     -8.868  0.0000E+00  0.0000E+00  0.5000E+00  0.5000E+00
     -8.737  0.0000E+00  0.0000E+00  0.5000E+00  0.5000E+00
     -8.607  0.0000E+00  0.0000E+00  0.5000E+00  0.5000E+00
     -8.477  0.0000E+00  0.0000E+00  0.5000E+00  0.5000E+00
     -8.346  0.0000E+00  0.0000E+00  0.5000E+00  0.5000E+00
     -8.216  0.0000E+00  0.0000E+00  0.5000E+00  0.5000E+00
     -8.085  0.0000E+00  0.0000E+00  0.5000E+00  0.5000E+00
     -7.955  0.0000E+00  0.0000E+00  0.5000E+00  0.5000E+00
     -7.824  0.1702E-15  0.0000E+00  0.5000E+00  0.5000E+00
     -7.694  0.2692E-12  0.0000E+00  0.5000E+00  0.5000E+00
     -7.563  0.1641E-09  0.0000E+00  0.5000E+00  0.5000E+00
     -7.433  0.4349E-07  0.0000E+00  0.5000E+00  0.5000E+00
     -7.302  0.5029E-05  0.0000E+00  0.5000E+00  0.5000E+00
     -7.172  0.2552E-03  0.0000E+00  0.5000E+00  0.5000E+00
     -7.041  0.5718E-02  0.0000E+00  0.5008E+00  0.5000E+00
     -6.911  0.5702E-01  0.0000E+00  0.5082E+00  0.5000E+00
     -6.781  0.2549E+00  0.0000E+00  0.5415E+00  0.5000E+00
     -6.650  0.5139E+00  0.0000E+00  0.6085E+00  0.5000E+00
     -6.520  0.4688E+00  0.0000E+00  0.6697E+00  0.5000E+00
     -6.389  0.1934E+00  0.0000E+00  0.6949E+00  0.5000E+00
     -6.259  0.3596E-01  0.0000E+00  0.6996E+00  0.5000E+00
     -6.128  0.2992E-02  0.0000E+00  0.7000E+00  0.5000E+00
     -5.998  0.1106E-03  0.0000E+00  0.7000E+00  0.5000E+00
     -5.867  0.1801E-05  0.0000E+00  0.7000E+00  0.5000E+00
     -5.737  0.1286E-07  0.0000E+00  0.7000E+00  0.5000E+00
     -5.606  0.4004E-10  0.3319E-14  0.7000E+00  0.5000E+00
     -5.476  0.5412E-13  0.3370E-11  0.7000E+00  0.5000E+00
     -5.345  0.0000E+00  0.1498E-08  0.7000E+00  0.5000E+00
     -5.215  0.0000E+00  0.2898E-06  0.7000E+00  0.5000E+00
     -5.085  0.0000E+00  0.2451E-04  0.7000E+00  0.5000E+00
     -4.954  0.0000E+00  0.9118E-03  0.7000E+00  0.5001E+00
     -4.824  0.0000E+00  0.1502E-01  0.7000E+00  0.5021E+00
     -4.693  0.0000E+00  0.1105E+00  0.7000E+00  0.5165E+00
     -4.563  0.0000E+00  0.3650E+00  0.7000E+00  0.5641E+00
     -4.432  0.0000E+00  0.5448E+00  0.7000E+00  0.6352E+00
     -4.302  0.0000E+00  0.3681E+00  0.7000E+00  0.6832E+00
     -4.171  0.0000E+00  0.1124E+00  0.7000E+00  0.6979E+00
     -4.041  0.0000E+00  0.1542E-01  0.7000E+00  0.6999E+00
     -3.910  0.0000E+00  0.9441E-03  0.7000E+00  0.7000E+00
     -3.780  0.0000E+00  0.2560E-04  0.7000E+00  0.7000E+00
     -3.650  0.0000E+00  0.3055E-06  0.7000E+00  0.7000E+00
     -3.519  0.0000E+00  0.1593E-08  0.7000E+00  0.7000E+00
     -3.389  0.0000E+00  0.3617E-11  0.7000E+00  0.7000E+00
     -3.258  0.0000E+00  0.3574E-14  0.7000E+00  0.7000E+00
     -3.128  0.0000E+00  0.0000E+00  0.7000E+00  0.7000E+00
     -2.997  0.0000E+00  0.0000E+00  0.7000E+00  0.7000E+00
     -2.867  0.0000E+00  0.0000E+00  0.7000E+00  0.7000E+00
     -2.736  0.0000E+00  0.0000E+00  0.7000E+00  0.7000E+00
     -2.606  0.0000E+00  0.0000E+00  0.7000E+00  0.7000E+00
     -2.475  0.0000E+00  0.0000E+00  0.7000E+00  0.7000E+00
     -2.345  0.0000E+00  0.0000E+00  0.7000E+00  0.7000E+00
     -2.214  0.0000E+00  0.0000E+00  0.7000E+00  0.7000E+00
     -2.084  0.0000E+00  0.0000E+00  0.7000E+00  0.7000E+00
     -1.954  0.0000E+00  0.0000E+00  0.7000E+00  0.7000E+00
     -1.823  0.0000E+00  0.0000E+00  0.7000E+00  0.7000E+00
     -1.693  0.0000E+00  0.0000E+00  0.7000E+00  0.7000E+00
     -1.562  0.1966E-13  0.0000E+00  0.7000E+00  0.7000E+00
     -1.432  0.1510E-10  0.6383E-15  0.7000E+00  0.7000E+00
     -1.301  0.5038E-08  0.7271E-12  0.7000E+00  0.7000E+00
     -1.171  0.7326E-06  0.3596E-09  0.7000E+00  0.7000E+00
     -1.040  0.4667E-04  0.7737E-07  0.7000E+00  0.7000E+00
     -0.910  0.1311E-02  0.7272E-05  0.7002E+00  0.7000E+00
     -0.779  0.1634E-01  0.3004E-03  0.7023E+00  0.7000E+00
     -0.649  0.9117E-01  0.5490E-02  0.7142E+00  0.7008E+00
     -0.518  0.2291E+00  0.4474E-01  0.7441E+00  0.7066E+00
     -0.388  0.2603E+00  0.1637E+00  0.7780E+00  0.7280E+00
     -0.258  0.1338E+00  0.2705E+00  0.7955E+00  0.7632E+00
     -0.127  0.3105E-01  0.2023E+00  0.7996E+00  0.7896E+00
      0.003  0.3230E-02  0.6838E-01  0.8000E+00  0.7985E+00
      0.134  0.1496E-03  0.1040E-01  0.8000E+00  0.7999E+00
      0.264  0.3060E-05  0.7061E-03  0.8000E+00  0.8000E+00
      0.395  0.2748E-07  0.2126E-04  0.8000E+00  0.8000E+00
      0.525  0.3467E-08  0.2819E-06  0.8000E+00  0.8000E+00
      0.656  0.5197E-06  0.1635E-08  0.8000E+00  0.8000E+00
      0.786  0.3521E-04  0.3645E-10  0.8000E+00  0.8000E+00
      0.917  0.1051E-02  0.9735E-08  0.8001E+00  0.8000E+00
      1.047  0.1392E-01  0.1279E-05  0.8020E+00  0.8000E+00
      1.177  0.8258E-01  0.7371E-04  0.8127E+00  0.8000E+00
      1.308  0.2236E+00  0.1881E-02  0.8419E+00  0.8003E+00
      1.438  0.3074E+00  0.2163E-01  0.8820E+00  0.8031E+00
      1.569  0.3587E+00  0.1167E+00  0.9288E+00  0.8183E+00
      1.699  0.5220E+00  0.3272E+00  0.9969E+00  0.8610E+00
      1.830  0.5040E+00  0.5675E+00  0.1063E+01  0.9350E+00
      1.960  0.2327E+00  0.6555E+00  0.1093E+01  0.1021E+01
      2.091  0.4877E-01  0.4386E+00  0.1099E+01  0.1078E+01
      2.221  0.4581E-02  0.1462E+00  0.1100E+01  0.1097E+01
      2.352  0.1914E-03  0.2259E-01  0.1100E+01  0.1100E+01
      2.482  0.3529E-05  0.1573E-02  0.1100E+01  0.1100E+01
      2.613  0.2854E-07  0.4869E-04  0.1100E+01  0.1100E+01
      2.743  0.1007E-09  0.6639E-06  0.1100E+01  0.1100E+01
      2.873  0.1544E-12  0.3963E-08  0.1100E+01  0.1100E+01
      3.004  0.0000E+00  0.1030E-10  0.1100E+01  0.1100E+01
      3.134  0.0000E+00  0.1166E-13  0.1100E+01  0.1100E+01
      3.265  0.0000E+00  0.0000E+00  0.1100E+01  0.1100E+01
      3.395  0.0000E+00  0.0000E+00  0.1100E+01  0.1100E+01
      3.526  0.0000E+00  0.0000E+00  0.1100E+01  0.1100E+01
      3.656  0.0000E+00  0.0000E+00  0.1100E+01  0.1100E+01
      3.787  0.0000E+00  0.0000E+00  0.1100E+01  0.1100E+01
      3.917  0.0000E+00  0.0000E+00  0.1100E+01  0.1100E+01
