    2    2   10    2
  0.2560000E+03  0.8000000E-09  0.8000000E-09  0.8000000E-09  0.5000000E-15
  1.000000000000000E-004
  CAR 
 unknown system                          
   12    1   11
 
  0.0000000E+00  0.0000000E+00  0.0000000E+00  0.1000000E+01
   1      -33.220725    -32.002141
   2      -21.036612    -19.267898
   3      -13.442005    -12.549722
   4      -13.356489    -11.578747
   5      -13.356489    -11.578747
   6       -6.665188     -4.496791
   7       -6.665188     -4.496791
   8       -0.497450     -0.305389
   9        1.338729      1.704282
  10        1.703864      1.916736
  11        1.703864      1.917143
