 running on    1 nodes
 distr:  one band on    1 nodes,    1 groups
 vasp.5.2.12 11Nov11 complex                                                    
  
 POSCAR found :  1 types and       2 ions
 LDA part: xc-table for Pade appr. of Perdew
 POSCAR, INCAR and KPOINTS ok, starting setup
 WARNING: small aliasing (wrap around) errors must be expected
 FFT: planning ...(           1 )
 WAVECAR not read
 entering main loop
       N       E                     dE             d eps       ncg     rms          rms(c)
DAV:   1     0.904605059616E+02    0.90461E+02   -0.20931E+03    44   0.376E+02
DAV:   2     0.922341136693E+01   -0.81237E+02   -0.79752E+02    69   0.153E+02
DAV:   3    -0.920333693088E+01   -0.18427E+02   -0.18022E+02    68   0.593E+01
DAV:   4    -0.100321844037E+02   -0.82885E+00   -0.82830E+00    56   0.103E+01
DAV:   5    -0.100523814829E+02   -0.20197E-01   -0.20192E-01    72   0.125E+00    0.744E+00
DAV:   6    -0.968852983141E+01    0.36385E+00   -0.13381E+00    56   0.102E+01    0.357E+00
DAV:   7    -0.995241665435E+01   -0.26389E+00   -0.22255E-01    44   0.459E+00    0.187E+00
DAV:   8    -0.999274821101E+01   -0.40332E-01   -0.62271E-02    44   0.228E+00    0.456E-01
DAV:   9    -0.100010232427E+02   -0.82750E-02   -0.64542E-03    50   0.689E-01    0.199E-01
DAV:  10    -0.100052615750E+02   -0.42383E-02   -0.16988E-03    50   0.331E-01    0.466E-02
DAV:  11    -0.100054590572E+02   -0.19748E-03   -0.12896E-04    44   0.101E-01    0.218E-02
DAV:  12    -0.100055730843E+02   -0.11403E-03   -0.23012E-05    50   0.485E-02    0.642E-03
DAV:  13    -0.100056447294E+02   -0.71645E-04   -0.42892E-06    44   0.170E-02
   1 F= -.10005645E+02 E0= -.10005645E+02  d E =-.100056E+02  mag=     2.0000
 curvature:   0.00 expect dE= 0.000E+00 dE for cont linesearch  0.000E+00
 trial: gam= 0.00000 g(F)=  0.107E+00 g(S)=  0.000E+00 ort = 0.000E+00 (trialstep = 0.100E+01)
 search vector abs. value=  0.107E+00
 bond charge predicted
       N       E                     dE             d eps       ncg     rms          rms(c)
DAV:   1    -0.975348817011E+01    0.25208E+00   -0.32327E+01    50   0.507E+01    0.204E+00
DAV:   2    -0.970112371196E+01    0.52364E-01   -0.43160E-01    44   0.548E+00    0.963E-01
DAV:   3    -0.976856610678E+01   -0.67442E-01   -0.31841E-02    47   0.142E+00    0.400E-01
DAV:   4    -0.977506026410E+01   -0.64942E-02   -0.16094E-02    44   0.922E-01    0.111E-01
DAV:   5    -0.977792563316E+01   -0.28654E-02   -0.97030E-04    44   0.252E-01    0.556E-02
DAV:   6    -0.977826414709E+01   -0.33851E-03   -0.18193E-04    44   0.102E-01    0.242E-02
DAV:   7    -0.977861517434E+01   -0.35103E-03   -0.23983E-05    44   0.418E-02    0.766E-03
DAV:   8    -0.977879295031E+01   -0.17778E-03   -0.99234E-06    44   0.191E-02    0.448E-03
DAV:   9    -0.977894094271E+01   -0.14799E-03   -0.92220E-06    44   0.188E-02    0.280E-03
DAV:  10    -0.977901812876E+01   -0.77186E-04   -0.34844E-06    44   0.118E-02
   2 F= -.97790181E+01 E0= -.97790181E+01  d E =0.226627E+00  mag=     2.0000
 trial-energy change:    0.226627  1 .order    0.297037   -0.106937    0.701011
 step:   0.2229(harm=  0.1324)  dis= 0.01132  next Energy=   -10.018345 (dE=-0.127E-01)
 bond charge predicted
       N       E                     dE             d eps       ncg     rms          rms(c)
DAV:   1    -0.100188080669E+02   -0.23987E+00   -0.19808E+01    56   0.394E+01    0.168E+00
DAV:   2    -0.995572936907E+01    0.63079E-01   -0.18195E-01    44   0.376E+00    0.687E-01
DAV:   3    -0.100063085094E+02   -0.50579E-01   -0.19138E-02    53   0.115E+00    0.296E-01
DAV:   4    -0.100144529966E+02   -0.81445E-02   -0.45230E-03    50   0.542E-01    0.772E-02
DAV:   5    -0.100166623298E+02   -0.22093E-02   -0.24020E-04    44   0.146E-01    0.438E-02
DAV:   6    -0.100171551713E+02   -0.49284E-03   -0.13533E-04    47   0.112E-01    0.124E-02
DAV:   7    -0.100173000382E+02   -0.14487E-03   -0.23486E-05    44   0.508E-02    0.544E-03
DAV:   8    -0.100173751031E+02   -0.75065E-04   -0.42794E-06    47   0.200E-02
   3 F= -.10017375E+02 E0= -.10017375E+02  d E =-.117304E-01  mag=     2.0000
 curvature:  -0.07 expect dE=-0.164E-04 dE for cont linesearch -0.164E-04
 trial: gam= 0.00000 g(F)=  0.251E-03 g(S)=  0.000E+00 ort =-0.518E-02 (trialstep = 0.845E+00)
 search vector abs. value=  0.251E-03
 reached required accuracy - stopping structural energy minimisation
 writing wavefunctions
NPROCS =  1
