<?xml version="1.0" encoding="ISO-8859-1"?>
<modeling>
 <generator>
  <i name="program" type="string">vasp </i>
  <i name="version" type="string">5.2.12  </i>
  <i name="subversion" type="string">11Nov11 complex                                                      parallel </i>
  <i name="platform" type="string">LinuxIFC </i>
  <i name="date" type="string">2012 10 10 </i>
  <i name="time" type="string">20:44:22 </i>
 </generator>
 <incar>
  <i type="string" name="PREC">normal</i>
  <i type="int" name="ISPIN">     2</i>
  <i type="int" name="IBRION">     2</i>
  <i type="int" name="NSW">    10</i>
  <i name="ENCUT">    250.00000000</i>
  <v name="MAGMOM">      1.00000000      1.00000000</v>
  <i type="int" name="ISMEAR">     0</i>
 </incar>
 <kpoints>
  <generation param="Monkhorst-Pack">
   <v type="int" name="divisions">       1        1        1 </v>
   <v name="usershift">      0.00000000       0.00000000       0.00000000 </v>
   <v name="genvec1">      1.00000000       0.00000000       0.00000000 </v>
   <v name="genvec2">      0.00000000       1.00000000       0.00000000 </v>
   <v name="genvec3">      0.00000000       0.00000000       1.00000000 </v>
   <v name="shift">      0.00000000       0.00000000       0.00000000 </v>
  </generation>
  <varray name="kpointlist" >
   <v>       0.00000000       0.00000000       0.00000000 </v>
  </varray>
  <varray name="weights" >
   <v>       1.00000000 </v>
  </varray>
 </kpoints>
 <parameters>
  <separator name="general" >
   <i type="string" name="SYSTEM">unknown system</i>
   <i type="logical" name="LCOMPAT"> F  </i>
  </separator>
  <separator name="electronic" >
   <i type="string" name="PREC">normal</i>
   <i name="ENMAX">    250.00000000</i>
   <i name="ENAUG">    605.39200000</i>
   <i name="EDIFF">      0.00010000</i>
   <i type="int" name="IALGO">    38</i>
   <i type="int" name="IWAVPR">    11</i>
   <i type="int" name="NBANDS">    11</i>
   <i name="NELECT">     12.00000000</i>
   <i type="int" name="TURBO">     0</i>
   <i type="int" name="IRESTART">     0</i>
   <i type="int" name="NREBOOT">     0</i>
   <i type="int" name="NMIN">     0</i>
   <i name="EREF">      0.00000000</i>
   <separator name="electronic smearing" >
    <i type="int" name="ISMEAR">     0</i>
    <i name="SIGMA">      0.20000000</i>
    <i name="KSPACING">      0.50000000</i>
    <i type="logical" name="KGAMMA"> T  </i>
   </separator>
   <separator name="electronic projectors" >
    <i type="logical" name="LREAL"> F  </i>
    <v name="ROPT">      0.00000000</v>
    <i type="int" name="LMAXPAW">  -100</i>
    <i type="int" name="LMAXMIX">     2</i>
    <i type="logical" name="NLSPLINE"> F  </i>
   </separator>
   <separator name="electronic startup" >
    <i type="int" name="ISTART">     0</i>
    <i type="int" name="ICHARG">     2</i>
    <i type="int" name="INIWAV">     1</i>
   </separator>
   <separator name="electronic spin" >
    <i type="int" name="ISPIN">     2</i>
    <i type="logical" name="LNONCOLLINEAR"> F  </i>
    <v name="MAGMOM">      1.00000000      1.00000000</v>
    <i name="NUPDOWN">     -1.00000000</i>
    <i type="logical" name="LSORBIT"> F  </i>
    <v name="SAXIS">      0.00000000      0.00000000      1.00000000</v>
    <i type="logical" name="LSPIRAL"> F  </i>
    <v name="QSPIRAL">      0.00000000      0.00000000      0.00000000</v>
    <i type="logical" name="LZEROZ"> F  </i>
   </separator>
   <separator name="electronic exchange-correlation" >
    <i type="logical" name="LASPH"> F  </i>
    <i type="logical" name="LMETAGGA"> F  </i>
   </separator>
   <separator name="electronic convergence" >
    <i type="int" name="NELM">    60</i>
    <i type="int" name="NELMDL">     0</i>
    <i type="int" name="NELMIN">     2</i>
    <i name="ENINI">    250.00000000</i>
    <separator name="electronic convergence detail" >
     <i type="logical" name="LDIAG"> T  </i>
     <i type="logical" name="LSUBROT"> T  </i>
     <i name="WEIMIN">      0.00100000</i>
     <i name="EBREAK">      0.00000227</i>
     <i name="DEPER">      0.30000000</i>
     <i type="int" name="NRMM">     4</i>
     <i name="TIME">      0.40000000</i>
    </separator>
   </separator>
   <separator name="electronic mixer" >
    <i name="AMIX">      0.40000000</i>
    <i name="BMIX">      1.00000000</i>
    <i name="AMIN">      0.10000000</i>
    <i name="AMIX_MAG">      1.60000000</i>
    <i name="BMIX_MAG">      1.00000000</i>
    <separator name="electronic mixer details" >
     <i type="int" name="IMIX">     4</i>
     <i type="int" name="MAXMIX">   -45</i>
     <i name="WC">    100.00000000</i>
     <i type="int" name="INIMIX">     1</i>
     <i type="int" name="MIXPRE">     1</i>
     <i type="int" name="MREMOVE">     5</i>
    </separator>
   </separator>
   <separator name="electronic dipolcorrection" >
    <i type="logical" name="LDIPOL"> F  </i>
    <i type="logical" name="LMONO"> F  </i>
    <i type="int" name="IDIPOL">     0</i>
    <i name="EPSILON">      1.00000000</i>
    <v name="DIPOL">   -100.00000000   -100.00000000   -100.00000000</v>
    <i name="EFIELD">      0.00000000</i>
   </separator>
  </separator>
  <separator name="grids" >
   <i type="int" name="NGX">    32</i>
   <i type="int" name="NGY">    32</i>
   <i type="int" name="NGZ">    32</i>
   <i type="int" name="NGXF">    64</i>
   <i type="int" name="NGYF">    64</i>
   <i type="int" name="NGZF">    64</i>
   <i type="logical" name="ADDGRID"> F  </i>
  </separator>
  <separator name="ionic" >
   <i type="int" name="NSW">    10</i>
   <i type="int" name="IBRION">     2</i>
   <i type="int" name="ISIF">     2</i>
   <i name="PSTRESS">      0.00000000</i>
   <i name="EDIFFG">      0.00100000</i>
   <i type="int" name="NFREE">     1</i>
   <i name="POTIM">      0.50000000</i>
   <i name="SMASS">     -3.00000000</i>
   <i name="SCALEE">      1.00000000</i>
  </separator>
  <separator name="ionic md" >
   <i name="TEBEG">      0.00010000</i>
   <i name="TEEND">      0.00010000</i>
   <i type="int" name="NBLOCK">     1</i>
   <i type="int" name="KBLOCK">    10</i>
   <i type="int" name="NPACO">   256</i>
   <i name="APACO">     16.00000000</i>
  </separator>
  <separator name="symmetry" >
   <i type="int" name="ISYM">     2</i>
   <i name="SYMPREC">      0.00001000</i>
  </separator>
  <separator name="dos" >
   <i type="logical" name="LORBIT"> F  </i>
   <v name="RWIGS">     -1.00000000</v>
   <i type="int" name="NEDOS">   301</i>
   <i name="EMIN">     10.00000000</i>
   <i name="EMAX">    -10.00000000</i>
   <i name="EFERMI">      0.00000000</i>
  </separator>
  <separator name="writing" >
   <i type="int" name="NWRITE">     2</i>
   <i type="logical" name="LWAVE"> T  </i>
   <i type="logical" name="LCHARG"> T  </i>
   <i type="logical" name="LPARD"> F  </i>
   <i type="logical" name="LVTOT"> F  </i>
   <i type="logical" name="LVHAR"> F  </i>
   <i type="logical" name="LELF"> F  </i>
   <i type="logical" name="LOPTICS"> F  </i>
   <v name="STM">      0.00000000      0.00000000      0.00000000      0.00000000      0.00000000      0.00000000      0.00000000</v>
  </separator>
  <separator name="performance" >
   <i type="int" name="NPAR">     1</i>
   <i type="int" name="NSIM">     4</i>
   <i type="int" name="NBLK">    -1</i>
   <i type="logical" name="LPLANE"> T  </i>
   <i type="logical" name="LSCALAPACK"> F  </i>
   <i type="logical" name="LSCAAWARE"> F  </i>
   <i type="logical" name="LSCALU"> F  </i>
   <i type="logical" name="LASYNC"> F  </i>
   <i type="logical" name="LORBITALREAL"> F  </i>
  </separator>
  <separator name="miscellaneous" >
   <i type="int" name="IDIOT">     3</i>
   <i type="logical" name="LMUSIC"> F  </i>
   <v name="POMASS">     16.00000000</v>
   <v name="DARWINR">      0.00000000</v>
   <v name="DARWINV">      1.00000000</v>
   <i type="logical" name="LCORR"> T  </i>
  </separator>
  <i type="logical" name="GGA_COMPAT"> T  </i>
  <i type="logical" name="LBERRY"> F  </i>
  <i type="int" name="ICORELEVEL">     0</i>
  <i type="logical" name="LDAU"> F  </i>
  <i type="int" name="I_CONSTRAINED_M">     0</i>
  <separator name="electronic exchange-correlation" >
   <i type="string" name="GGA">--</i>
   <i type="int" name="VOSKOWN">     0</i>
   <i type="logical" name="LHFCALC"> F  </i>
   <i type="string" name="PRECFOCK"></i>
   <i type="logical" name="LHFONE"> F  </i>
   <i type="logical" name="LRHFCALC"> F  </i>
   <i type="logical" name="LTHOMAS"> F  </i>
   <i type="logical" name="LMODELHF"> F  </i>
   <i name="ENCUT4O">     -1.00000000</i>
   <i type="int" name="EXXOEP">     0</i>
   <i type="int" name="FOURORBIT">     0</i>
   <i name="AEXX">      0.00000000</i>
   <i name="HFALPHA">      0.00000000</i>
   <i name="ALDAX">      1.00000000</i>
   <i name="AGGAX">      1.00000000</i>
   <i name="ALDAC">      1.00000000</i>
   <i name="AGGAC">      1.00000000</i>
   <i type="int" name="NKREDX">     1</i>
   <i type="int" name="NKREDY">     1</i>
   <i type="int" name="NKREDZ">     1</i>
   <i type="logical" name="SHIFTRED"> F  </i>
   <i type="logical" name="ODDONLY"> F  </i>
   <i type="logical" name="EVENONLY"> F  </i>
   <i type="int" name="LMAXFOCK">     0</i>
   <i type="int" name="NMAXFOCKAE">     0</i>
   <i type="logical" name="LFOCKAEDFT"> F  </i>
   <i name="HFSCREEN">      0.00000000</i>
   <i name="HFSCREENC">      0.00000000</i>
  </separator>
  <separator name="vdW DFT" >
   <i type="logical" name="LUSE_VDW"> F  </i>
   <i name="Zab_VDW">     -0.84910000</i>
   <i name="PARAM1">      0.12340000</i>
   <i name="PARAM2">      1.00000000</i>
   <i name="PARAM3">      0.00000000</i>
  </separator>
  <separator name="model GW" >
   <i type="int" name="MODEL_GW">     0</i>
   <i name="MODEL_EPS0">    153.60000000</i>
   <i name="MODEL_ALPHA">      1.00000000</i>
  </separator>
  <separator name="linear response parameters" >
   <i type="logical" name="LEPSILON"> F  </i>
   <i type="logical" name="LRPA"> F  </i>
   <i type="logical" name="LNABLA"> F  </i>
   <i type="logical" name="LVEL"> F  </i>
   <i type="int" name="KINTER">     0</i>
   <i name="CSHIFT">      0.10000000</i>
   <i name="OMEGAMAX">     -1.00000000</i>
  </separator>
  <separator name="orbital magnetization" >
   <i type="logical" name="NUCIND"> F  </i>
   <v name="MAGPOS">      0.00000000      0.00000000      0.00000000</v>
   <i type="logical" name="LNICSALL"> T  </i>
   <i type="logical" name="ORBITALMAG"> F  </i>
   <i type="logical" name="LMAGBLOCH"> F  </i>
   <i type="logical" name="LCHIMAG"> F  </i>
   <i type="logical" name="LGAUGE"> T  </i>
   <i type="int" name="MAGATOM">     0</i>
   <v name="MAGDIPOL">      0.00000000      0.00000000      0.00000000</v>
   <v name="AVECCONST">      0.00000000      0.00000000      0.00000000</v>
  </separator>
  <separator name="response functions" >
   <i type="logical" name="LADDER"> F  </i>
   <i type="logical" name="LHARTREE"> T  </i>
   <i type="int" name="IBSE">     0</i>
   <i type="logical" name="LTCTE"> F  </i>
   <i type="logical" name="LTETE"> F  </i>
   <i type="logical" name="LFXCEPS"> F  </i>
   <i type="logical" name="L2ORDER"> F  </i>
   <i type="logical" name="LUSEW"> F  </i>
   <i name="ENCUTGW">     -2.00000000</i>
   <i name="ENCUTGWSOFT">     -2.00000000</i>
   <i name="ENCUTLF">     -1.00000000</i>
   <i type="int" name="LMAXMP2">    -1</i>
   <i name="SCISSOR">      0.00000000</i>
   <i type="int" name="NOMEGA">     0</i>
   <i type="int" name="NOMEGAR">     0</i>
   <i type="int" name="NBANDSGW">    -1</i>
   <i type="int" name="NBANDSO">    -1</i>
   <i type="int" name="NBANDSV">    -1</i>
   <i name="OPTEMAX">      0.00000000</i>
   <i type="int" name="NELM">     1</i>
   <i type="int" name="DIM">     3</i>
   <i type="int" name="ANTIRES">     0</i>
   <i name="OMEGAMAX">    -30.00000000</i>
   <i name="OMEGATL">   -200.00000000</i>
   <i type="int" name="OMEGAGRID">     0</i>
   <i name="CSHIFT">     -0.10000000</i>
   <i type="logical" name="SELFENERGY"> F  </i>
   <i type="logical" name="LSPECTRAL"> F  </i>
   <i type="logical" name="ODDONLYGW"> F  </i>
   <i type="logical" name="EVENONLYGW"> F  </i>
   <i type="int" name="NKREDLFX">     1</i>
   <i type="int" name="NKREDLFY">     1</i>
   <i type="int" name="NKREDLFZ">     1</i>
   <i type="int" name="MAXMEM">  1800</i>
   <i type="int" name="TELESCOPE">     0</i>
  </separator>
 </parameters>
 <atominfo>
  <atoms>       2 </atoms>
  <types>       1 </types>
  <array name="atoms" >
   <dimension dim="1">ion</dimension>
   <field type="string">element</field>
   <field type="int">atomtype</field>
   <set>
    <rc><c>O </c><c>   1</c></rc>
    <rc><c>O </c><c>   1</c></rc>
   </set>
  </array>
  <array name="atomtypes" >
   <dimension dim="1">type</dimension>
   <field type="int">atomspertype</field>
   <field type="string">element</field>
   <field>mass</field>
   <field>valence</field>
   <field type="string">pseudopotential</field>
   <set>
    <rc><c>   2</c><c>O </c><c>     16.00000000</c><c>      6.00000000</c><c> PAW_PBE O 08Apr2002                    </c></rc>
   </set>
  </array>
 </atominfo>
 <structure name="initialpos" >
  <crystal>
   <varray name="basis" >
    <v>       8.00000000       0.00000000       0.00000000 </v>
    <v>       0.00000000       8.00000000       0.00000000 </v>
    <v>       0.00000000       0.00000000       8.00000000 </v>
   </varray>
   <i name="volume">    512.00000000 </i>
   <varray name="rec_basis" >
    <v>       0.12500000       0.00000000       0.00000000 </v>
    <v>       0.00000000       0.12500000       0.00000000 </v>
    <v>       0.00000000       0.00000000       0.12500000 </v>
   </varray>
  </crystal>
  <varray name="positions" >
   <v>       0.00000000       0.00000000       0.07787225 </v>
   <v>       0.00000000       0.00000000       0.92212775 </v>
  </varray>
 </structure>
 <calculation>
  <scstep>
   <time name="dav">    0.45    0.80</time>
   <time name="total">    1.37    2.61</time>
   <energy>
    <i name="alphaZ">      1.08541148 </i>
    <i name="ewald">     51.76263861 </i>
    <i name="hartreedc">   -783.29189993 </i>
    <i name="XCdc">     54.68338812 </i>
    <i name="pawpsdc">    491.72839742 </i>
    <i name="pawaedc">   -495.41806911 </i>
    <i name="eentropy">      0.00000000 </i>
    <i name="bandstr">    -88.21502024 </i>
    <i name="atom">    858.12565962 </i>
    <i name="e_fr_energy">     90.46050596 </i>
    <i name="e_wo_entrp">     90.46050596 </i>
    <i name="e_0_energy">     90.46050596 </i>
   </energy>
  </scstep>
  <scstep>
   <time name="dav">    0.63    1.18</time>
   <time name="total">    0.63    1.30</time>
   <energy>
    <i name="e_fr_energy">      9.22341137 </i>
    <i name="e_wo_entrp">      9.32485776 </i>
    <i name="e_0_energy">      9.27413456 </i>
   </energy>
  </scstep>
  <scstep>
   <time name="dav">    0.63    1.11</time>
   <time name="total">    0.63    1.23</time>
   <energy>
    <i name="e_fr_energy">     -9.20333693 </i>
    <i name="e_wo_entrp">     -9.20332489 </i>
    <i name="e_0_energy">     -9.20333091 </i>
   </energy>
  </scstep>
  <scstep>
   <time name="dav">    0.53    0.94</time>
   <time name="total">    0.53    1.06</time>
   <energy>
    <i name="e_fr_energy">    -10.03218440 </i>
    <i name="e_wo_entrp">    -10.03218428 </i>
    <i name="e_0_energy">    -10.03218434 </i>
   </energy>
  </scstep>
  <scstep>
   <time name="dav">    0.65    1.21</time>
   <time name="total">    0.78    1.56</time>
   <energy>
    <i name="e_fr_energy">    -10.05238148 </i>
    <i name="e_wo_entrp">    -10.05238133 </i>
    <i name="e_0_energy">    -10.05238141 </i>
   </energy>
  </scstep>
  <scstep>
   <time name="dav">    0.54    1.01</time>
   <time name="total">    1.64    3.24</time>
   <energy>
    <i name="e_fr_energy">     -9.68852983 </i>
    <i name="e_wo_entrp">     -9.68852983 </i>
    <i name="e_0_energy">     -9.68852983 </i>
   </energy>
  </scstep>
  <scstep>
   <time name="dav">    0.45    0.87</time>
   <time name="total">    1.54    3.39</time>
   <energy>
    <i name="e_fr_energy">     -9.95241665 </i>
    <i name="e_wo_entrp">     -9.95241665 </i>
    <i name="e_0_energy">     -9.95241665 </i>
   </energy>
  </scstep>
  <scstep>
   <time name="dav">    0.51    1.01</time>
   <time name="total">    1.73    4.01</time>
   <energy>
    <i name="e_fr_energy">     -9.99274821 </i>
    <i name="e_wo_entrp">     -9.99274821 </i>
    <i name="e_0_energy">     -9.99274821 </i>
   </energy>
  </scstep>
  <scstep>
   <time name="dav">    0.56    1.14</time>
   <time name="total">    1.80    3.43</time>
   <energy>
    <i name="e_fr_energy">    -10.00102324 </i>
    <i name="e_wo_entrp">    -10.00102324 </i>
    <i name="e_0_energy">    -10.00102324 </i>
   </energy>
  </scstep>
  <scstep>
   <time name="dav">    0.56    1.11</time>
   <time name="total">    1.82    3.68</time>
   <energy>
    <i name="e_fr_energy">    -10.00526157 </i>
    <i name="e_wo_entrp">    -10.00526157 </i>
    <i name="e_0_energy">    -10.00526157 </i>
   </energy>
  </scstep>
  <scstep>
   <time name="dav">    0.49    0.49</time>
   <time name="total">    1.71    1.73</time>
   <energy>
    <i name="e_fr_energy">    -10.00545906 </i>
    <i name="e_wo_entrp">    -10.00545906 </i>
    <i name="e_0_energy">    -10.00545906 </i>
   </energy>
  </scstep>
  <scstep>
   <time name="dav">    0.54    0.54</time>
   <time name="total">    1.78    1.79</time>
   <energy>
    <i name="e_fr_energy">    -10.00557308 </i>
    <i name="e_wo_entrp">    -10.00557308 </i>
    <i name="e_0_energy">    -10.00557308 </i>
   </energy>
  </scstep>
  <scstep>
   <time name="dav">    0.49    0.49</time>
   <time name="total">    1.57    1.58</time>
   <energy>
    <i name="alphaZ">      1.08541148 </i>
    <i name="ewald">     51.76263861 </i>
    <i name="hartreedc">   -779.69313087 </i>
    <i name="XCdc">     54.77507602 </i>
    <i name="pawpsdc">    606.30613208 </i>
    <i name="pawaedc">   -608.70456271 </i>
    <i name="eentropy">      0.00000000 </i>
    <i name="bandstr">   -193.66286896 </i>
    <i name="atom">    858.12565962 </i>
    <i name="e_fr_energy">    -10.00564473 </i>
    <i name="e_wo_entrp">    -10.00564473 </i>
    <i name="e_0_energy">    -10.00564473 </i>
   </energy>
  </scstep>
  <parameters_embedded>
   <separator name="dft+d2" >
    <i type="logical" name="LVDW"> F  </i>
   </separator>
  </parameters_embedded>
  <structure>
   <crystal>
    <varray name="basis" >
     <v>       8.00000000       0.00000000       0.00000000 </v>
     <v>       0.00000000       8.00000000       0.00000000 </v>
     <v>       0.00000000       0.00000000       8.00000000 </v>
    </varray>
    <i name="volume">    512.00000000 </i>
    <varray name="rec_basis" >
     <v>       0.12500000       0.00000000       0.00000000 </v>
     <v>       0.00000000       0.12500000       0.00000000 </v>
     <v>       0.00000000       0.00000000       0.12500000 </v>
    </varray>
   </crystal>
   <varray name="positions" >
    <v>       0.00000000       0.00000000       0.07787225 </v>
    <v>       0.00000000       0.00000000       0.92212775 </v>
   </varray>
  </structure>
  <varray name="forces" >
   <v>       0.00000000       0.00000000      -1.05277069 </v>
   <v>       0.00000000       0.00000000       1.05277069 </v>
  </varray>
  <varray name="stress" >
   <v>     -67.12126311       0.00000000       0.00000000 </v>
   <v>       0.00000000     -67.12126311       0.00000000 </v>
   <v>       0.00000000       0.00000000     -69.33049066 </v>
  </varray>
  <energy>
   <i name="e_fr_energy">    -10.00564473 </i>
   <i name="e_wo_entrp">    -10.00564473 </i>
   <i name="e_0_energy">      0.00000000 </i>
  </energy>
  <time name="totalsc">   20.17   34.11</time>
 </calculation>
 <calculation>
  <scstep>
   <time name="dav">    0.   <time name="dav">    0.54    0.54</time>
   <time name="total">    1.75    1.76</time>
   <energy>
    <i name="alphaZ">      1.08541148 </i>
    <i name="ewald">     88.14348368 </i>
    <i name="hartreedc">   -805.63213273 </i>
    <i name="XCdc">     55.28389730 </i>
    <i name="pawpsdc">    606.21330185 </i>
    <i name="pawaedc">   -608.61194375 </i>
    <i name="eentropy">      0.00000000 </i>
    <i name="bandstr">   -204.36116563 </i>
    <i name="atom">    858.12565962 </i>
    <i name="e_fr_energy">     -9.75348817 </i>
    <i name="e_wo_entrp">     -9.75348817 </i>
    <i name="e_0_energy">     -9.75348817 </i>
   </energ   <time name="dav">    0.   <time name="dav">    0.50    0.50</time>
   <time name="total">    1.72    1.75</time>
   <energy>
    <i name="e_fr_energy">     -9.70112371 </i>
    <i name="e_wo_entrp">     -9.70112371 </i>
    <i name="e_0_energy">     -9.70112371 </i>
   </energ   <time name="dav">    0.   <time name="dav">    0.53    0.53</time>
   <time name="total">    1.76    1.79</time>
   <energy>
    <i name="e_fr_energy">     -9.76856611 </i>
    <i name="e_wo_entrp">     -9.76856611 </i>
    <i name="e_0_energy">     -9.76856611 </i>
   </energ   <time name="dav">    0.   <time name="dav">    0.51    0.51</time>
   <time name="total">    1.74    1.77</time>
   <energy>
    <i name="e_fr_energy">     -9.77506026 </i>
    <i name="e_wo_entrp">     -9.77506026 </i>
    <i name="e_0_energy">     -9.77506026 </i>
   </energ   <time name="dav">    0.   <time name="dav">    0.50    0.50</time>
   <time name="total">    1.73    1.76</time>
   <energy>
    <i name="e_fr_energy">     -9.77792563 </i>
    <i name="e_wo_entrp">     -9.77792563 </i>
    <i name="e_0_energy">     -9.77792563 </i>
   </energ   <time name="dav">    0.   <time name="dav">    0.50    0.50</time>
   <time name="total">    1.73    1.74</time>
   <energy>
    <i name="e_fr_energy">     -9.77826415 </i>
    <i name="e_wo_entrp">     -9.77826415 </i>
    <i name="e_0_energy">     -9.77826415 </i>
   </energ   <time name="dav">    0.   <time name="dav">    0.50    0.50</time>
   <time name="total">    1.72    1.78</time>
   <energy>
    <i name="e_fr_energy">     -9.77861517 </i>
    <i name="e_wo_entrp">     -9.77861517 </i>
    <i name="e_0_energy">     -9.77861517 </i>
   </energ   <time name="dav">    0.   <time name="dav   <time name="total">       <time name="total">    1.71    1.76</time>
   <energy>
    <i name="e_fr_energy">     -9.77879295 </i>
    <i name="e_wo_entrp">     -9.77879295 </i>
    <i name="e_0_energy">     -9.77879295 </i>
   </energ   <time name="dav">    0.   <time name="dav   <time name="total">       <time name="total">    1.71    1.81</time>
   <energy>
    <i name="e_fr_energy">     -9.77894094 </i>
    <i name="e_wo_entrp">     -9.77894094 </i>
    <i name="e_0_energy">     -9.77894094 </i>
   </energ   <time name="dav">    0.   <time name="dav   <time name="total">       <time name="total   <energy>
    <i name="alphaZ">      1.08541148 </i>
    <i name="ewald">     88.14348368 </i>
    <i name="hartreedc">   -810.94978872 </i>
    <i name="XCdc">     55.60527900 </i>
    <i name="pawpsdc">    646.93691882 </i>
    <i name="pawaedc">   -649.49191429 </i>
    <i name="eentropy">      0.00000000 </i>
    <i name="bandstr">   -199.23406772 </i>
    <i name="atom">    858.12565962 </i>
    <i name="e_fr_energy">     -9.77901813 </i>
    <i name="e_wo_entrp">     -9.77901813 </i>
    <i name="e_0_energy">     -9.77901813 </i>
   </energy>
  </scstep>
  <structure>
   <crystal>
    <varray name="basis" >
     <v>       8.00000000       0.00000000       0.00000000 </v>
     <v>       0.00000000       8.00000000       0.00000000 </v>
     <v>       0.00000000       0.00000000       8.00000000 </v>
    </varray>
    <i name="volume">    512.00000000 </i>
    <varray name="rec_basis" >
     <v>       0.12500000       0.00000000       0.00000000 </v>
     <v>       0.00000000       0.12500000       0.00000000 </v>
     <v>       0.00000000       0.00000000       0.12500000 </v>
    </varray>
   </crystal>
   <varray name="positions" >
    <v>       0.00000000       0.00000000       0.07152369 </v>
    <v>       0.00000000       0.00000000       0.92847631 </v>
   </varray>
  </structure>
  <varray name="forces" >
   <v>       0.00000000       0.00000000       6.90128141 </v>
   <v>       0.00000000       0.00000000      -6.90128141 </v>
  </varray>
  <varray name="stress" >
   <v>     -67.05418586       0.00000000       0.00000000 </v>
   <v>       0.00000000     -67.05418586       0.00000000 </v>
   <v>       0.00000000       0.00000000     -32.28925475 </v>
  </varray>
  <energy>
   <i name="e_fr_energy">     -9.77901813 </i>
   <i name="e_wo_entrp">     -9.77901813 </i>
   <i name="e_0_energy">      0.00000000 </i>
  </energy>
  <time name="totalsc">   19.27   23.89</time>
 </calculation>
56</time>
 </calculation>
 <calculation>
  <scstep>
   <time name="dav">    0.   <time name="dav   <time name="total">       <time name="total">    1.84    1.86</time>
   <energy>
    <i name="alphaZ">      1.08541148 </i>
    <i name="ewald">     59.33755935 </i>
    <i name="hartreedc">   -790.69484922 </i>
    <i name="XCdc">     55.21455409 </i>
    <i name="pawpsdc">    646.90826453 </i>
    <i name="pawaedc">   -649.46324857 </i>
    <i name="eentropy">      0.00000000 </i>
    <i name="bandstr">   -190.53215935 </i>
    <i name="atom">    858.12565962 </i>
    <i name="e_fr_energy">    -10.01880807 </i>
    <i name="e_wo_entrp">    -10.01880807 </i>
    <i name="e_0_energy">    -10.01880807 </i>
   </energ   <time name="dav">    0.   <time name="dav">    0.51    0.51</time>
   <time name="total">    1.76    1.82</time>
   <energy>
    <i name="e_fr_energy">     -9.95572937 </i>
    <i name="e_wo_entrp">     -9.95572937 </i>
    <i name="e_0_energy">     -9.95572937 </i>
   </energ   <time name="dav">    0.   <time name="dav">    0.58    0.58</time>
   <time name="total">    1.82    1.84</time>
   <energy>
    <i name="e_fr_energy">    -10.00630851 </i>
    <i name="e_wo_entrp">    -10.00630851 </i>
    <i name="e_0_energy">    -10.00630851 </i>
   </energ   <time name="dav">    0.   <time name="dav">    0.49    0.95</time>
   <time name="total">    1.59    3.00</time>
   <energy>
    <i name="e_fr_energy">    -10.01445300 </i>
    <i name="e_wo_entrp">    -10.01445300 </i>
    <i name="e_0_energy">    -10.01445300 </i>
   </energy>
  </scstep>
  <scstep>
   <time name="dav">    0.53    0.53</time>
   <time name="total">    1.81    2.41</time>
   <energy>
    <i name="e_fr_energy">    -10.01666233 </i>
    <i name="e_wo_entrp">    -10.01666233 </i>
    <i name="e_0_energy">    -10.01666233 </i>
   </energy>
  </scstep>
  <scstep>
   <time name="dav">    0.56    0.56</time>
   <time name="total">    1.84    1.85</time>
   <energy>
    <i name="e_fr_energy">    -10.01715517 </i>
    <i name="e_wo_entrp">    -10.01715517 </i>
    <i name="e_0_energy">    -10.01715517 </i>
   </energy>
  </scstep>
  <scstep>
   <time name="dav">    0.53    0.53</time>
   <time name="total">    1.81    1.83</time>
   <energy>
    <i name="e_fr_energy">    -10.01730004 </i>
    <i name="e_wo_entrp">    -10.01730004 </i>
    <i name="e_0_energy">    -10.01730004 </i>
   </energy>
  </scstep>
  <scstep>
   <time name="dav">    0.53    0.53</time>
   <time name="total">    1.65    1.72</time>
   <energy>
    <i name="alphaZ">      1.08541148 </i>
    <i name="ewald">     59.33755935 </i>
    <i name="hartreedc">   -786.37003845 </i>
    <i name="XCdc">     54.94576230 </i>
    <i name="pawpsdc">    614.17456111 </i>
    <i name="pawaedc">   -616.59633998 </i>
    <i name="eentropy">      0.00000000 </i>
    <i name="bandstr">   -194.71995054 </i>
    <i name="atom">    858.12565962 </i>
    <i name="e_fr_energy">    -10.01737510 </i>
    <i name="e_wo_entrp">    -10.01737510 </i>
    <i name="e_0_energy">    -10.01737510 </i>
   </energy>
  </scstep>
  <structure>
   <crystal>
    <varray name="basis" >
     <v>       8.00000000       0.00000000       0.00000000 </v>
     <v>       0.00000000       8.00000000       0.00000000 </v>
     <v>       0.00000000       0.00000000       8.00000000 </v>
    </varray>
    <i name="volume">    512.00000000 </i>
    <varray name="rec_basis" >
     <v>       0.12500000       0.00000000       0.00000000 </v>
     <v>       0.00000000       0.12500000       0.00000000 </v>
     <v>       0.00000000       0.00000000       0.12500000 </v>
    </varray>
   </crystal>
   <varray name="positions" >
    <v>       0.00000000       0.00000000       0.07645691 </v>
    <v>       0.00000000       0.00000000       0.92354309 </v>
   </varray>
  </structure>
  <varray name="forces" >
   <v>       0.00000000       0.00000000       0.05101111 </v>
   <v>       0.00000000       0.00000000      -0.05101111 </v>
  </varray>
  <varray name="stress" >
   <v>     -67.05123005       0.00000000       0.00000000 </v>
   <v>       0.00000000     -67.05123005       0.00000000 </v>
   <v>       0.00000000       0.00000000     -63.61144370 </v>
  </varray>
  <energy>
   <i name="e_fr_energy">    -10.01737510 </i>
   <i name="e_wo_entrp">    -10.01737510 </i>
   <i name="e_0_energy">      0.00000000 </i>
  </energy>
  <time name="totalsc">   15.74   18.05</time>
  <eigenvalues>
   <array>
    <dimension dim="1">band</dimension>
    <dimension dim="2">kpoint</dimension>
    <dimension dim="3">spin</dimension>
    <field>eigene</field>
    <field>occ</field>
    <set>
     <set comment="spin 1">
      <set comment="kpoint 1">
       <r>  -33.2207    1.0000 </r>
       <r>  -21.0366    1.0000 </r>
       <r>  -13.4420    1.0000 </r>
       <r>  -13.3565    1.0000 </r>
       <r>  -13.3565    1.0000 </r>
       <r>   -6.6652    1.0000 </r>
       <r>   -6.6652    1.0000 </r>
       <r>   -0.4974    0.0000 </r>
       <r>    1.3387    0.0000 </r>
       <r>    1.7039    0.0000 </r>
       <r>    1.7039    0.0000 </r>
      </set>
     </set>
     <set comment="spin 2">
      <set comment="kpoint 1">
       <r>  -32.0021    1.0000 </r>
       <r>  -19.2679    1.0000 </r>
       <r>  -12.5497    1.0000 </r>
       <r>  -11.5787    1.0000 </r>
       <r>  -11.5787    1.0000 </r>
       <r>   -4.4968    0.0000 </r>
       <r>   -4.4968    0.0000 </r>
       <r>   -0.3054    0.0000 </r>
       <r>    1.7043    0.0000 </r>
       <r>    1.9167    0.0000 </r>
       <r>    1.9171    0.0000 </r>
      </set>
     </set>
    </set>
   </array>
  </eigenvalues>
  <separator name="orbital magnetization" >
   <v name="MAGDIPOLOUT">      0.00000000      0.00000000      0.00000000</v>
  </separator>
  <dos>
   <i name="efermi">     -5.73482640 </i>
   <total>
    <array>
     <dimension dim="1">gridpoints</dimension>
     <dimension dim="2">spin</dimension>
     <field>energy</field>
     <field>total</field>
     <field>integrated</field>
     <set>
      <set comment="spin 1">
       <r>   -35.2207     0.0000     0.0000 </r>
       <r>   -35.0903     0.0000     0.0000 </r>
       <r>   -34.9598     0.0000     0.0000 </r>
       <r>   -34.8293     0.0000     0.0000 </r>
       <r>   -34.6989     0.0000     0.0000 </r>
       <r>   -34.5684     0.0000     0.0000 </r>
       <r>   -34.4380     0.0000     0.0000 </r>
       <r>   -34.3075     0.0000     0.0000 </r>
       <r>   -34.1770     0.0000     0.0000 </r>
       <r>   -34.0466     0.0000     0.0000 </r>
       <r>   -33.9161     0.0000     0.0000 </r>
       <r>   -33.7857     0.0002     0.0000 </r>
       <r>   -33.6552     0.0079     0.0011 </r>
       <r>   -33.5248     0.1129     0.0158 </r>
       <r>   -33.3943     0.7211     0.1099 </r>
       <r>   -33.2638     2.0727     0.3803 </r>
       <r>   -33.1334     2.6932     0.7316 </r>
       <r>   -33.0029     1.5839     0.9382 </r>
       <r>   -32.8725     0.4205     0.9931 </r>
       <r>   -32.7420     0.0501     0.9996 </r>
       <r>   -32.6115     0.0027     1.0000 </r>
       <r>   -32.4811     0.0001     1.0000 </r>
       <r>   -32.3506     0.0000     1.0000 </r>
       <r>   -32.2202     0.0000     1.0000 </r>
       <r>   -32.0897     0.0000     1.0000 </r>
       <r>   -31.9592     0.0000     1.0000 </r>
       <r>   -31.8288     0.0000     1.0000 </r>
       <r>   -31.6983     0.0000     1.0000 </r>
       <r>   -31.5679     0.0000     1.0000 </r>
       <r>   -31.4374     0.0000     1.0000 </r>
       <r>   -31.3069     0.0000     1.0000 </r>
       <r>   -31.1765     0.0000     1.0000 </r>
       <r>   -31.0460     0.0000     1.0000 </r>
       <r>   -30.9156     0.0000     1.0000 </r>
       <r>   -30.7851     0.0000     1.0000 </r>
       <r>   -30.6546     0.0000     1.0000 </r>
       <r>   -30.5242     0.0000     1.0000 </r>
       <r>   -30.3937     0.0000     1.0000 </r>
       <r>   -30.2633     0.0000     1.0000 </r>
       <r>   -30.1328     0.0000     1.0000 </r>
       <r>   -30.0023     0.0000     1.0000 </r>
       <r>   -29.8719     0.0000     1.0000 </r>
       <r>   -29.7414     0.0000     1.0000 </r>
       <r>   -29.6110     0.0000     1.0000 </r>
       <r>   -29.4805     0.0000     1.0000 </r>
       <r>   -29.3500     0.0000     1.0000 </r>
       <r>   -29.2196     0.0000     1.0000 </r>
       <r>   -29.0891     0.0000     1.0000 </r>
       <r>   -28.9587     0.0000     1.0000 </r>
       <r>   -28.8282     0.0000     1.0000 </r>
       <r>   -28.6977     0.0000     1.0000 </r>
       <r>   -28.5673     0.0000     1.0000 </r>
       <r>   -28.4368     0.0000     1.0000 </r>
       <r>   -28.3064     0.0000     1.0000 </r>
       <r>   -28.1759     0.0000     1.0000 </r>
       <r>   -28.0454     0.0000     1.0000 </r>
       <r>   -27.9150     0.0000     1.0000 </r>
       <r>   -27.7845     0.0000     1.0000 </r>
       <r>   -27.6541     0.0000     1.0000 </r>
       <r>   -27.5236     0.0000     1.0000 </r>
       <r>   -27.3932     0.0000     1.0000 </r>
       <r>   -27.2627     0.0000     1.0000 </r>
       <r>   -27.1322     0.0000     1.0000 </r>
       <r>   -27.0018     0.0000     1.0000 </r>
       <r>   -26.8713     0.0000     1.0000 </r>
       <r>   -26.7409     0.0000     1.0000 </r>
       <r>   -26.6104     0.0000     1.0000 </r>
       <r>   -26.4799     0.0000     1.0000 </r>
       <r>   -26.3495     0.0000     1.0000 </r>
       <r>   -26.2190     0.0000     1.0000 </r>
       <r>   -26.0886     0.0000     1.0000 </r>
       <r>   -25.9581     0.0000     1.0000 </r>
       <r>   -25.8276     0.0000     1.0000 </r>
       <r>   -25.6972     0.0000     1.0000 </r>
       <r>   -25.5667     0.0000     1.0000 </r>
       <r>   -25.4363     0.0000     1.0000 </r>
       <r>   -25.3058     0.0000     1.0000 </r>
       <r>   -25.1753     0.0000     1.0000 </r>
       <r>   -25.0449     0.0000     1.0000 </r>
       <r>   -24.9144     0.0000     1.0000 </r>
       <r>   -24.7840     0.0000     1.0000 </r>
       <r>   -24.6535     0.0000     1.0000 </r>
       <r>   -24.5230     0.0000     1.0000 </r>
       <r>   -24.3926     0.0000     1.0000 </r>
       <r>   -24.2621     0.0000     1.0000 </r>
       <r>   -24.1317     0.0000     1.0000 </r>
       <r>   -24.0012     0.0000     1.0000 </r>
       <r>   -23.8707     0.0000     1.0000 </r>
       <r>   -23.7403     0.0000     1.0000 </r>
       <r>   -23.6098     0.0000     1.0000 </r>
       <r>   -23.4794     0.0000     1.0000 </r>
       <r>   -23.3489     0.0000     1.0000 </r>
       <r>   -23.2184     0.0000     1.0000 </r>
       <r>   -23.0880     0.0000     1.0000 </r>
       <r>   -22.9575     0.0000     1.0000 </r>
       <r>   -22.8271     0.0000     1.0000 </r>
       <r>   -22.6966     0.0000     1.0000 </r>
       <r>   -22.5661     0.0000     1.0000 </r>
       <r>   -22.4357     0.0000     1.0000 </r>
       <r>   -22.3052     0.0000     1.0000 </r>
       <r>   -22.1748     0.0000     1.0000 </r>
       <r>   -22.0443     0.0000     1.0000 </r>
       <r>   -21.9139     0.0000     1.0000 </r>
       <r>   -21.7834     0.0000     1.0000 </r>
       <r>   -21.6529     0.0000     1.0000 </r>
       <r>   -21.5225     0.0022     1.0003 </r>
       <r>   -21.3920     0.0436     1.0060 </r>
       <r>   -21.2616     0.3823     1.0559 </r>
       <r>   -21.1311     1.5038     1.2520 </r>
       <r>   -21.0006     2.6703     1.6004 </r>
       <r>   -20.8702     2.1460     1.8804 </r>
       <r>   -20.7397     0.7798     1.9821 </r>
       <r>   -20.6093     0.1275     1.9987 </r>
       <r>   -20.4788     0.0093     2.0000 </r>
       <r>   -20.3483     0.0003     2.0000 </r>
       <r>   -20.2179     0.0000     2.0000 </r>
       <r>   -20.0874     0.0000     2.0000 </r>
       <r>   -19.9570     0.0000     2.0000 </r>
       <r>   -19.8265     0.0000     2.0000 </r>
       <r>   -19.6960     0.0000     2.0000 </r>
       <r>   -19.5656     0.0000     2.0000 </r>
       <r>   -19.4351     0.0000     2.0000 </r>
       <r>   -19.3047     0.0000     2.0000 </r>
       <r>   -19.1742     0.0000     2.0000 </r>
       <r>   -19.0437     0.0000     2.0000 </r>
       <r>   -18.9133     0.0000     2.0000 </r>
       <r>   -18.7828     0.0000     2.0000 </r>
       <r>   -18.6524     0.0000     2.0000 </r>
       <r>   -18.5219     0.0000     2.0000 </r>
       <r>   -18.3914     0.0000     2.0000 </r>
       <r>   -18.2610     0.0000     2.0000 </r>
       <r>   -18.1305     0.0000     2.0000 </r>
       <r>   -18.0001     0.0000     2.0000 </r>
       <r>   -17.8696     0.0000     2.0000 </r>
       <r>   -17.7391     0.0000     2.0000 </r>
       <r>   -17.6087     0.0000     2.0000 </r>
       <r>   -17.4782     0.0000     2.0000 </r>
       <r>   -17.3478     0.0000     2.0000 </r>
       <r>   -17.2173     0.0000     2.0000 </r>
       <r>   -17.0868     0.0000     2.0000 </r>
       <r>   -16.9564     0.0000     2.0000 </r>
       <r>   -16.8259     0.0000     2.0000 </r>
       <r>   -16.6955     0.0000     2.0000 </r>
       <r>   -16.5650     0.0000     2.0000 </r>
       <r>   -16.4345     0.0000     2.0000 </r>
       <r>   -16.3041     0.0000     2.0000 </r>
       <r>   -16.1736     0.0000     2.0000 </r>
       <r>   -16.0432     0.0000     2.0000 </r>
       <r>   -15.9127     0.0000     2.0000 </r>
       <r>   -15.7823     0.0000     2.0000 </r>
       <r>   -15.6518     0.0000     2.0000 </r>
       <r>   -15.5213     0.0000     2.0000 </r>
       <r>   -15.3909     0.0000     2.0000 </r>
       <r>   -15.2604     0.0000     2.0000 </r>
       <r>   -15.1300     0.0000     2.0000 </r>
       <r>   -14.9995     0.0000     2.0000 </r>
       <r>   -14.8690     0.0000     2.0000 </r>
       <r>   -14.7386     0.0000     2.0000 </r>
       <r>   -14.6081     0.0000     2.0000 </r>
       <r>   -14.4777     0.0000     2.0000 </r>
       <r>   -14.3472     0.0000     2.0000 </r>
       <r>   -14.2167     0.0000     2.0000 </r>
       <r>   -14.0863     0.0000     2.0000 </r>
       <r>   -13.9558     0.0012     2.0002 </r>
       <r>   -13.8254     0.0315     2.0043 </r>
       <r>   -13.6949     0.3780     2.0536 </r>
       <r>   -13.5644     2.1553     2.3348 </r>
       <r>   -13.4340     5.9145     3.1064 </r>
       <r>   -13.3035     7.8332     4.1283 </r>
       <r>   -13.1731     4.9709     4.7768 </r>
       <r>   -13.0426     1.4901     4.9712 </r>
       <r>   -12.9121     0.2074     4.9982 </r>
       <r>   -12.7817     0.0132     5.0000 </r>
       <r>   -12.6512     0.0004     5.0000 </r>
       <r>   -12.5208     0.0000     5.0000 </r>
       <r>   -12.3903     0.0000     5.0000 </r>
       <r>   -12.2598     0.0000     5.0000 </r>
       <r>   -12.1294     0.0000     5.0000 </r>
       <r>   -11.9989     0.0000     5.0000 </r>
       <r>   -11.8685     0.0000     5.0000 </r>
       <r>   -11.7380     0.0000     5.0000 </r>
       <r>   -11.6075     0.0000     5.0000 </r>
       <r>   -11.4771     0.0000     5.0000 </r>
       <r>   -11.3466     0.0000     5.0000 </r>
       <r>   -11.2162     0.0000     5.0000 </r>
       <r>   -11.0857     0.0000     5.0000 </r>
       <r>   -10.9552     0.0000     5.0000 </r>
       <r>   -10.8248     0.0000     5.0000 </r>
       <r>   -10.6943     0.0000     5.0000 </r>
       <r>   -10.5639     0.0000     5.0000 </r>
       <r>   -10.4334     0.0000     5.0000 </r>
       <r>   -10.3029     0.0000     5.0000 </r>
       <r>   -10.1725     0.0000     5.0000 </r>
       <r>   -10.0420     0.0000     5.0000 </r>
       <r>    -9.9116     0.0000     5.0000 </r>
       <r>    -9.7811     0.0000     5.0000 </r>
       <r>    -9.6507     0.0000     5.0000 </r>
       <r>    -9.5202     0.0000     5.0000 </r>
       <r>    -9.3897     0.0000     5.0000 </r>
       <r>    -9.2593     0.0000     5.0000 </r>
       <r>    -9.1288     0.0000     5.0000 </r>
       <r>    -8.9984     0.0000     5.0000 </r>
       <r>    -8.8679     0.0000     5.0000 </r>
       <r>    -8.7374     0.0000     5.0000 </r>
       <r>    -8.6070     0.0000     5.0000 </r>
       <r>    -8.4765     0.0000     5.0000 </r>
       <r>    -8.3461     0.0000     5.0000 </r>
       <r>    -8.2156     0.0000     5.0000 </r>
       <r>    -8.0851     0.0000     5.0000 </r>
       <r>    -7.9547     0.0000     5.0000 </r>
       <r>    -7.8242     0.0000     5.0000 </r>
       <r>    -7.6938     0.0000     5.0000 </r>
       <r>    -7.5633     0.0000     5.0000 </r>
       <r>    -7.4328     0.0000     5.0000 </r>
       <r>    -7.3024     0.0001     5.0000 </r>
       <r>    -7.1719     0.0026     5.0003 </r>
       <r>    -7.0415     0.0572     5.0078 </r>
       <r>    -6.9110     0.5702     5.0822 </r>
       <r>    -6.7805     2.5487     5.4147 </r>
       <r>    -6.6501     5.1386     6.0851 </r>
       <r>    -6.5196     4.6880     6.6967 </r>
       <r>    -6.3892     1.9345     6.9490 </r>
       <r>    -6.2587     0.3596     6.9960 </r>
       <r>    -6.1282     0.0299     6.9999 </r>
       <r>    -5.9978     0.0011     7.0000 </r>
       <r>    -5.8673     0.0000     7.0000 </r>
       <r>    -5.7369     0.0000     7.0000 </r>
       <r>    -5.6064     0.0000     7.0000 </r>
       <r>    -5.4759     0.0000     7.0000 </r>
       <r>    -5.3455     0.0000     7.0000 </r>
       <r>    -5.2150     0.0000     7.0000 </r>
       <r>    -5.0846     0.0000     7.0000 </r>
       <r>    -4.9541     0.0000     7.0000 </r>
       <r>    -4.8236     0.0000     7.0000 </r>
       <r>    -4.6932     0.0000     7.0000 </r>
       <r>    -4.5627     0.0000     7.0000 </r>
       <r>    -4.4323     0.0000     7.0000 </r>
       <r>    -4.3018     0.0000     7.0000 </r>
       <r>    -4.1714     0.0000     7.0000 </r>
       <r>    -4.0409     0.0000     7.0000 </r>
       <r>    -3.9104     0.0000     7.0000 </r>
       <r>    -3.7800     0.0000     7.0000 </r>
       <r>    -3.6495     0.0000     7.0000 </r>
       <r>    -3.5191     0.0000     7.0000 </r>
       <r>    -3.3886     0.0000     7.0000 </r>
       <r>    -3.2581     0.0000     7.0000 </r>
       <r>    -3.1277     0.0000     7.0000 </r>
       <r>    -2.9972     0.0000     7.0000 </r>
       <r>    -2.8668     0.0000     7.0000 </r>
       <r>    -2.7363     0.0000     7.0000 </r>
       <r>    -2.6058     0.0000     7.0000 </r>
       <r>    -2.4754     0.0000     7.0000 </r>
       <r>    -2.3449     0.0000     7.0000 </r>
       <r>    -2.2145     0.0000     7.0000 </r>
       <r>    -2.0840     0.0000     7.0000 </r>
       <r>    -1.9535     0.0000     7.0000 </r>
       <r>    -1.8231     0.0000     7.0000 </r>
       <r>    -1.6926     0.0000     7.0000 </r>
       <r>    -1.5622     0.0000     7.0000 </r>
       <r>    -1.4317     0.0000     7.0000 </r>
       <r>    -1.3012     0.0000     7.0000 </r>
       <r>    -1.1708     0.0000     7.0000 </r>
       <r>    -1.0403     0.0005     7.0001 </r>
       <r>    -0.9099     0.0131     7.0018 </r>
       <r>    -0.7794     0.1634     7.0231 </r>
       <r>    -0.6489     0.9117     7.1420 </r>
       <r>    -0.5185     2.2907     7.4409 </r>
       <r>    -0.3880     2.6029     7.7805 </r>
       <r>    -0.2576     1.3385     7.9551 </r>
       <r>    -0.1271     0.3105     7.9956 </r>
       <r>     0.0034     0.0323     7.9998 </r>
       <r>     0.1338     0.0015     8.0000 </r>
       <r>     0.2643     0.0000     8.0000 </r>
       <r>     0.3947     0.0000     8.0000 </r>
       <r>     0.5252     0.0000     8.0000 </r>
       <r>     0.6557     0.0000     8.0000 </r>
       <r>     0.7861     0.0004     8.0000 </r>
       <r>     0.9166     0.0105     8.0014 </r>
       <r>     1.0470     0.1392     8.0196 </r>
       <r>     1.1775     0.8258     8.1273 </r>
       <r>     1.3080     2.2356     8.4190 </r>
       <r>     1.4384     3.0744     8.8201 </r>
       <r>     1.5689     3.5866     9.2880 </r>
       <r>     1.6993     5.2205     9.9690 </r>
       <r>     1.8298     5.0397    10.6265 </r>
       <r>     1.9602     2.3275    10.9301 </r>
       <r>     2.0907     0.4877    10.9938 </r>
       <r>     2.2212     0.0458    10.9997 </r>
       <r>     2.3516     0.0019    11.0000 </r>
       <r>     2.4821     0.0000    11.0000 </r>
       <r>     2.6125     0.0000    11.0000 </r>
       <r>     2.7430     0.0000    11.0000 </r>
       <r>     2.8735     0.0000    11.0000 </r>
       <r>     3.0039     0.0000    11.0000 </r>
       <r>     3.1344     0.0000    11.0000 </r>
       <r>     3.2648     0.0000    11.0000 </r>
       <r>     3.3953     0.0000    11.0000 </r>
       <r>     3.5258     0.0000    11.0000 </r>
       <r>     3.6562     0.0000    11.0000 </r>
       <r>     3.7867     0.0000    11.0000 </r>
       <r>     3.9171     0.0000    11.0000 </r>
      </set>
      <set comment="spin 2">
       <r>   -35.2207     0.0000     0.0000 </r>
       <r>   -35.0903     0.0000     0.0000 </r>
       <r>   -34.9598     0.0000     0.0000 </r>
       <r>   -34.8293     0.0000     0.0000 </r>
       <r>   -34.6989     0.0000     0.0000 </r>
       <r>   -34.5684     0.0000     0.0000 </r>
       <r>   -34.4380     0.0000     0.0000 </r>
       <r>   -34.3075     0.0000     0.0000 </r>
       <r>   -34.1770     0.0000     0.0000 </r>
       <r>   -34.0466     0.0000     0.0000 </r>
       <r>   -33.9161     0.0000     0.0000 </r>
       <r>   -33.7857     0.0000     0.0000 </r>
       <r>   -33.6552     0.0000     0.0000 </r>
       <r>   -33.5248     0.0000     0.0000 </r>
       <r>   -33.3943     0.0000     0.0000 </r>
       <r>   -33.2638     0.0000     0.0000 </r>
       <r>   -33.1334     0.0000     0.0000 </r>
       <r>   -33.0029     0.0000     0.0000 </r>
       <r>   -32.8725     0.0000     0.0000 </r>
       <r>   -32.7420     0.0000     0.0000 </r>
       <r>   -32.6115     0.0001     0.0000 </r>
       <r>   -32.4811     0.0026     0.0004 </r>
       <r>   -32.3506     0.0499     0.0069 </r>
       <r>   -32.2202     0.4194     0.0616 </r>
       <r>   -32.0897     1.5816     0.2679 </r>
       <r>   -31.9592     2.6926     0.6192 </r>
       <r>   -31.8288     2.0748     0.8899 </r>
       <r>   -31.6983     0.7227     0.9842 </r>
       <r>   -31.5679     0.1133     0.9989 </r>
       <r>   -31.4374     0.0079     1.0000 </r>
       <r>   -31.3069     0.0002     1.0000 </r>
       <r>   -31.1765     0.0000     1.0000 </r>
       <r>   -31.0460     0.0000     1.0000 </r>
       <r>   -30.9156     0.0000     1.0000 </r>
       <r>   -30.7851     0.0000     1.0000 </r>
       <r>   -30.6546     0.0000     1.0000 </r>
       <r>   -30.5242     0.0000     1.0000 </r>
       <r>   -30.3937     0.0000     1.0000 </r>
       <r>   -30.2633     0.0000     1.0000 </r>
       <r>   -30.1328     0.0000     1.0000 </r>
       <r>   -30.0023     0.0000     1.0000 </r>
       <r>   -29.8719     0.0000     1.0000 </r>
       <r>   -29.7414     0.0000     1.0000 </r>
       <r>   -29.6110     0.0000     1.0000 </r>
       <r>   -29.4805     0.0000     1.0000 </r>
       <r>   -29.3500     0.0000     1.0000 </r>
       <r>   -29.2196     0.0000     1.0000 </r>
       <r>   -29.0891     0.0000     1.0000 </r>
       <r>   -28.9587     0.0000     1.0000 </r>
       <r>   -28.8282     0.0000     1.0000 </r>
       <r>   -28.6977     0.0000     1.0000 </r>
       <r>   -28.5673     0.0000     1.0000 </r>
       <r>   -28.4368     0.0000     1.0000 </r>
       <r>   -28.3064     0.0000     1.0000 </r>
       <r>   -28.1759     0.0000     1.0000 </r>
       <r>   -28.0454     0.0000     1.0000 </r>
       <r>   -27.9150     0.0000     1.0000 </r>
       <r>   -27.7845     0.0000     1.0000 </r>
       <r>   -27.6541     0.0000     1.0000 </r>
       <r>   -27.5236     0.0000     1.0000 </r>
       <r>   -27.3932     0.0000     1.0000 </r>
       <r>   -27.2627     0.0000     1.0000 </r>
       <r>   -27.1322     0.0000     1.0000 </r>
       <r>   -27.0018     0.0000     1.0000 </r>
       <r>   -26.8713     0.0000     1.0000 </r>
       <r>   -26.7409     0.0000     1.0000 </r>
       <r>   -26.6104     0.0000     1.0000 </r>
       <r>   -26.4799     0.0000     1.0000 </r>
       <r>   -26.3495     0.0000     1.0000 </r>
       <r>   -26.2190     0.0000     1.0000 </r>
       <r>   -26.0886     0.0000     1.0000 </r>
       <r>   -25.9581     0.0000     1.0000 </r>
       <r>   -25.8276     0.0000     1.0000 </r>
       <r>   -25.6972     0.0000     1.0000 </r>
       <r>   -25.5667     0.0000     1.0000 </r>
       <r>   -25.4363     0.0000     1.0000 </r>
       <r>   -25.3058     0.0000     1.0000 </r>
       <r>   -25.1753     0.0000     1.0000 </r>
       <r>   -25.0449     0.0000     1.0000 </r>
       <r>   -24.9144     0.0000     1.0000 </r>
       <r>   -24.7840     0.0000     1.0000 </r>
       <r>   -24.6535     0.0000     1.0000 </r>
       <r>   -24.5230     0.0000     1.0000 </r>
       <r>   -24.3926     0.0000     1.0000 </r>
       <r>   -24.2621     0.0000     1.0000 </r>
       <r>   -24.1317     0.0000     1.0000 </r>
       <r>   -24.0012     0.0000     1.0000 </r>
       <r>   -23.8707     0.0000     1.0000 </r>
       <r>   -23.7403     0.0000     1.0000 </r>
       <r>   -23.6098     0.0000     1.0000 </r>
       <r>   -23.4794     0.0000     1.0000 </r>
       <r>   -23.3489     0.0000     1.0000 </r>
       <r>   -23.2184     0.0000     1.0000 </r>
       <r>   -23.0880     0.0000     1.0000 </r>
       <r>   -22.9575     0.0000     1.0000 </r>
       <r>   -22.8271     0.0000     1.0000 </r>
       <r>   -22.6966     0.0000     1.0000 </r>
       <r>   -22.5661     0.0000     1.0000 </r>
       <r>   -22.4357     0.0000     1.0000 </r>
       <r>   -22.3052     0.0000     1.0000 </r>
       <r>   -22.1748     0.0000     1.0000 </r>
       <r>   -22.0443     0.0000     1.0000 </r>
       <r>   -21.9139     0.0000     1.0000 </r>
       <r>   -21.7834     0.0000     1.0000 </r>
       <r>   -21.6529     0.0000     1.0000 </r>
       <r>   -21.5225     0.0000     1.0000 </r>
       <r>   -21.3920     0.0000     1.0000 </r>
       <r>   -21.2616     0.0000     1.0000 </r>
       <r>   -21.1311     0.0000     1.0000 </r>
       <r>   -21.0006     0.0000     1.0000 </r>
       <r>   -20.8702     0.0000     1.0000 </r>
       <r>   -20.7397     0.0000     1.0000 </r>
       <r>   -20.6093     0.0000     1.0000 </r>
       <r>   -20.4788     0.0000     1.0000 </r>
       <r>   -20.3483     0.0000     1.0000 </r>
       <r>   -20.2179     0.0000     1.0000 </r>
       <r>   -20.0874     0.0000     1.0000 </r>
       <r>   -19.9570     0.0000     1.0000 </r>
       <r>   -19.8265     0.0003     1.0000 </r>
       <r>   -19.6960     0.0092     1.0012 </r>
       <r>   -19.5656     0.1258     1.0176 </r>
       <r>   -19.4351     0.7732     1.1185 </r>
       <r>   -19.3047     2.1381     1.3975 </r>
       <r>   -19.1742     2.6731     1.7462 </r>
       <r>   -19.0437     1.5126     1.9435 </r>
       <r>   -18.9133     0.3863     1.9939 </r>
       <r>   -18.7828     0.0443     1.9997 </r>
       <r>   -18.6524     0.0023     2.0000 </r>
       <r>   -18.5219     0.0001     2.0000 </r>
       <r>   -18.3914     0.0000     2.0000 </r>
       <r>   -18.2610     0.0000     2.0000 </r>
       <r>   -18.1305     0.0000     2.0000 </r>
       <r>   -18.0001     0.0000     2.0000 </r>
       <r>   -17.8696     0.0000     2.0000 </r>
       <r>   -17.7391     0.0000     2.0000 </r>
       <r>   -17.6087     0.0000     2.0000 </r>
       <r>   -17.4782     0.0000     2.0000 </r>
       <r>   -17.3478     0.0000     2.0000 </r>
       <r>   -17.2173     0.0000     2.0000 </r>
       <r>   -17.0868     0.0000     2.0000 </r>
       <r>   -16.9564     0.0000     2.0000 </r>
       <r>   -16.8259     0.0000     2.0000 </r>
       <r>   -16.6955     0.0000     2.0000 </r>
       <r>   -16.5650     0.0000     2.0000 </r>
       <r>   -16.4345     0.0000     2.0000 </r>
       <r>   -16.3041     0.0000     2.0000 </r>
       <r>   -16.1736     0.0000     2.0000 </r>
       <r>   -16.0432     0.0000     2.0000 </r>
       <r>   -15.9127     0.0000     2.0000 </r>
       <r>   -15.7823     0.0000     2.0000 </r>
       <r>   -15.6518     0.0000     2.0000 </r>
       <r>   -15.5213     0.0000     2.0000 </r>
       <r>   -15.3909     0.0000     2.0000 </r>
       <r>   -15.2604     0.0000     2.0000 </r>
       <r>   -15.1300     0.0000     2.0000 </r>
       <r>   -14.9995     0.0000     2.0000 </r>
       <r>   -14.8690     0.0000     2.0000 </r>
       <r>   -14.7386     0.0000     2.0000 </r>
       <r>   -14.6081     0.0000     2.0000 </r>
       <r>   -14.4777     0.0000     2.0000 </r>
       <r>   -14.3472     0.0000     2.0000 </r>
       <r>   -14.2167     0.0000     2.0000 </r>
       <r>   -14.0863     0.0000     2.0000 </r>
       <r>   -13.9558     0.0000     2.0000 </r>
       <r>   -13.8254     0.0000     2.0000 </r>
       <r>   -13.6949     0.0000     2.0000 </r>
       <r>   -13.5644     0.0000     2.0000 </r>
       <r>   -13.4340     0.0000     2.0000 </r>
       <r>   -13.3035     0.0000     2.0000 </r>
       <r>   -13.1731     0.0000     2.0000 </r>
       <r>   -13.0426     0.0018     2.0002 </r>
       <r>   -12.9121     0.0379     2.0052 </r>
       <r>   -12.7817     0.3471     2.0505 </r>
       <r>   -12.6512     1.4256     2.2365 </r>
       <r>   -12.5208     2.6419     2.5811 </r>
       <r>   -12.3903     2.2157     2.8702 </r>
       <r>   -12.2598     0.8403     2.9798 </r>
       <r>   -12.1294     0.1442     2.9986 </r>
       <r>   -11.9989     0.0329     3.0029 </r>
       <r>   -11.8685     0.2881     3.0405 </r>
       <r>   -11.7380     1.6834     3.2601 </r>
       <r>   -11.6075     4.4345     3.8386 </r>
       <r>   -11.4771     5.2823     4.5278 </r>
       <r>   -11.3466     2.8477     4.8993 </r>
       <r>   -11.2162     0.6927     4.9896 </r>
       <r>   -11.0857     0.0756     4.9995 </r>
       <r>   -10.9552     0.0037     5.0000 </r>
       <r>   -10.8248     0.0001     5.0000 </r>
       <r>   -10.6943     0.0000     5.0000 </r>
       <r>   -10.5639     0.0000     5.0000 </r>
       <r>   -10.4334     0.0000     5.0000 </r>
       <r>   -10.3029     0.0000     5.0000 </r>
       <r>   -10.1725     0.0000     5.0000 </r>
       <r>   -10.0420     0.0000     5.0000 </r>
       <r>    -9.9116     0.0000     5.0000 </r>
       <r>    -9.7811     0.0000     5.0000 </r>
       <r>    -9.6507     0.0000     5.0000 </r>
       <r>    -9.5202     0.0000     5.0000 </r>
       <r>    -9.3897     0.0000     5.0000 </r>
       <r>    -9.2593     0.0000     5.0000 </r>
       <r>    -9.1288     0.0000     5.0000 </r>
       <r>    -8.9984     0.0000     5.0000 </r>
       <r>    -8.8679     0.0000     5.0000 </r>
       <r>    -8.7374     0.0000     5.0000 </r>
       <r>    -8.6070     0.0000     5.0000 </r>
       <r>    -8.4765     0.0000     5.0000 </r>
       <r>    -8.3461     0.0000     5.0000 </r>
       <r>    -8.2156     0.0000     5.0000 </r>
       <r>    -8.0851     0.0000     5.0000 </r>
       <r>    -7.9547     0.0000     5.0000 </r>
       <r>    -7.8242     0.0000     5.0000 </r>
       <r>    -7.6938     0.0000     5.0000 </r>
       <r>    -7.5633     0.0000     5.0000 </r>
       <r>    -7.4328     0.0000     5.0000 </r>
       <r>    -7.3024     0.0000     5.0000 </r>
       <r>    -7.1719     0.0000     5.0000 </r>
       <r>    -7.0415     0.0000     5.0000 </r>
       <r>    -6.9110     0.0000     5.0000 </r>
       <r>    -6.7805     0.0000     5.0000 </r>
       <r>    -6.6501     0.0000     5.0000 </r>
       <r>    -6.5196     0.0000     5.0000 </r>
       <r>    -6.3892     0.0000     5.0000 </r>
       <r>    -6.2587     0.0000     5.0000 </r>
       <r>    -6.1282     0.0000     5.0000 </r>
       <r>    -5.9978     0.0000     5.0000 </r>
       <r>    -5.8673     0.0000     5.0000 </r>
       <r>    -5.7369     0.0000     5.0000 </r>
       <r>    -5.6064     0.0000     5.0000 </r>
       <r>    -5.4759     0.0000     5.0000 </r>
       <r>    -5.3455     0.0000     5.0000 </r>
       <r>    -5.2150     0.0000     5.0000 </r>
       <r>    -5.0846     0.0002     5.0000 </r>
       <r>    -4.9541     0.0091     5.0012 </r>
       <r>    -4.8236     0.1502     5.0208 </r>
       <r>    -4.6932     1.1045     5.1649 </r>
       <r>    -4.5627     3.6496     5.6410 </r>
       <r>    -4.4323     5.4480     6.3518 </r>
       <r>    -4.3018     3.6811     6.8320 </r>
       <r>    -4.1714     1.1237     6.9786 </r>
       <r>    -4.0409     0.1542     6.9987 </r>
       <r>    -3.9104     0.0094     7.0000 </r>
       <r>    -3.7800     0.0003     7.0000 </r>
       <r>    -3.6495     0.0000     7.0000 </r>
       <r>    -3.5191     0.0000     7.0000 </r>
       <r>    -3.3886     0.0000     7.0000 </r>
       <r>    -3.2581     0.0000     7.0000 </r>
       <r>    -3.1277     0.0000     7.0000 </r>
       <r>    -2.9972     0.0000     7.0000 </r>
       <r>    -2.8668     0.0000     7.0000 </r>
       <r>    -2.7363     0.0000     7.0000 </r>
       <r>    -2.6058     0.0000     7.0000 </r>
       <r>    -2.4754     0.0000     7.0000 </r>
       <r>    -2.3449     0.0000     7.0000 </r>
       <r>    -2.2145     0.0000     7.0000 </r>
       <r>    -2.0840     0.0000     7.0000 </r>
       <r>    -1.9535     0.0000     7.0000 </r>
       <r>    -1.8231     0.0000     7.0000 </r>
       <r>    -1.6926     0.0000     7.0000 </r>
       <r>    -1.5622     0.0000     7.0000 </r>
       <r>    -1.4317     0.0000     7.0000 </r>
       <r>    -1.3012     0.0000     7.0000 </r>
       <r>    -1.1708     0.0000     7.0000 </r>
       <r>    -1.0403     0.0000     7.0000 </r>
       <r>    -0.9099     0.0001     7.0000 </r>
       <r>    -0.7794     0.0030     7.0004 </r>
       <r>    -0.6489     0.0549     7.0076 </r>
       <r>    -0.5185     0.4474     7.0659 </r>
       <r>    -0.3880     1.6371     7.2795 </r>
       <r>    -0.2576     2.7049     7.6324 </r>
       <r>    -0.1271     2.0228     7.8963 </r>
       <r>     0.0034     0.6838     7.9855 </r>
       <r>     0.1338     0.1040     7.9991 </r>
       <r>     0.2643     0.0071     8.0000 </r>
       <r>     0.3947     0.0002     8.0000 </r>
       <r>     0.5252     0.0000     8.0000 </r>
       <r>     0.6557     0.0000     8.0000 </r>
       <r>     0.7861     0.0000     8.0000 </r>
       <r>     0.9166     0.0000     8.0000 </r>
       <r>     1.0470     0.0000     8.0000 </r>
       <r>     1.1775     0.0007     8.0001 </r>
       <r>     1.3080     0.0188     8.0026 </r>
       <r>     1.4384     0.2163     8.0308 </r>
       <r>     1.5689     1.1669     8.1830 </r>
       <r>     1.6993     3.2723     8.6099 </r>
       <r>     1.8298     5.6755     9.3503 </r>
       <r>     1.9602     6.5546    10.2054 </r>
       <r>     2.0907     4.3864    10.7777 </r>
       <r>     2.2212     1.4620    10.9684 </r>
       <r>     2.3516     0.2259    10.9979 </r>
       <r>     2.4821     0.0157    10.9999 </r>
       <r>     2.6125     0.0005    11.0000 </r>
       <r>     2.7430     0.0000    11.0000 </r>
       <r>     2.8735     0.0000    11.0000 </r>
       <r>     3.0039     0.0000    11.0000 </r>
       <r>     3.1344     0.0000    11.0000 </r>
       <r>     3.2648     0.0000    11.0000 </r>
       <r>     3.3953     0.0000    11.0000 </r>
       <r>     3.5258     0.0000    11.0000 </r>
       <r>     3.6562     0.0000    11.0000 </r>
       <r>     3.7867     0.0000    11.0000 </r>
       <r>     3.9171     0.0000    11.0000 </r>
      </set>
     </set>
    </array>
   </total>
  </dos>
 </calculation>
 <structure name="finalpos" >
  <crystal>
   <varray name="basis" >
    <v>       8.00000000       0.00000000       0.00000000 </v>
    <v>       0.00000000       8.00000000       0.00000000 </v>
    <v>       0.00000000       0.00000000       8.00000000 </v>
   </varray>
   <i name="volume">    512.00000000 </i>
   <varray name="rec_basis" >
    <v>       0.12500000       0.00000000       0.00000000 </v>
    <v>       0.00000000       0.12500000       0.00000000 </v>
    <v>       0.00000000       0.00000000       0.12500000 </v>
   </varray>
  </crystal>
  <varray name="positions" >
   <v>       0.00000000       0.00000000       0.07645691 </v>
   <v>       0.00000000       0.00000000       0.92354309 </v>
  </varray>
 </structure>
</modeling>
