 running on    1 nodes
 distr:  one band on    1 nodes,    1 groups
 vasp.5.2.12 11Nov11 complex                                                    
  
 POSCAR found :  2 types and       3 ions
 LDA part: xc-table for Pade appr. of Perdew
 POSCAR, INCAR and KPOINTS ok, starting setup
 WARNING: small aliasing (wrap around) errors must be expected
 FFT: planning ...(           1 )
 WAVECAR not read
 entering main loop
       N       E                     dE             d eps       ncg     rms          rms(c)
DAV:   1     0.105381782754E+03    0.10538E+03   -0.46012E+03    32   0.593E+02
DAV:   2    -0.131755113810E+02   -0.11856E+03   -0.11731E+03    48   0.176E+02
DAV:   3    -0.242363592259E+02   -0.11061E+02   -0.11006E+02    32   0.689E+01
DAV:   4    -0.245140398425E+02   -0.27768E+00   -0.27592E+00    36   0.111E+01
DAV:   5    -0.245152979600E+02   -0.12581E-02   -0.12550E-02    32   0.690E-01    0.792E+00
DAV:   6    -0.231177322690E+02    0.13976E+01   -0.39615E+00    28   0.182E+01    0.343E+00
DAV:   7    -0.230045029324E+02    0.11323E+00   -0.24249E-01    28   0.456E+00    0.197E+00
DAV:   8    -0.229518880263E+02    0.52615E-01   -0.20881E-01    28   0.342E+00    0.373E-01
DAV:   9    -0.229498701897E+02    0.20178E-02   -0.23288E-02    28   0.139E+00    0.244E-01
DAV:  10    -0.229511660174E+02   -0.12958E-02   -0.26503E-03    32   0.536E-01    0.542E-02
DAV:  11    -0.229560921014E+02   -0.49261E-02   -0.87058E-04    24   0.202E-01    0.207E-02
DAV:  12    -0.229573727578E+02   -0.12807E-02   -0.77645E-05    16   0.600E-02    0.175E-02
DAV:  13    -0.229589509462E+02   -0.15782E-02   -0.26103E-04    28   0.906E-02    0.605E-03
DAV:  14    -0.229591261313E+02   -0.17519E-03   -0.98277E-06    20   0.236E-02    0.291E-03
DAV:  15    -0.229592180999E+02   -0.91969E-04   -0.64201E-06    24   0.167E-02
   1 F= -.22959218E+02 E0= -.22959218E+02  d E =-.229592E+02
 curvature:   0.00 expect dE= 0.000E+00 dE for cont linesearch  0.000E+00
 trial: gam= 0.00000 g(F)=  0.326E-02 g(S)=  0.000E+00 ort = 0.000E+00 (trialstep = 0.100E+01)
 search vector abs. value=  0.326E-02
 bond charge predicted
       N       E                     dE             d eps       ncg     rms          rms(c)
DAV:   1    -0.229544166085E+02    0.47095E-02   -0.86767E-01    28   0.922E+00    0.280E-01
DAV:   2    -0.229547126594E+02   -0.29605E-03   -0.19096E-02    32   0.122E+00    0.118E-01
DAV:   3    -0.229544159541E+02    0.29671E-03   -0.61524E-04    32   0.247E-01    0.521E-02
DAV:   4    -0.229544080907E+02    0.78634E-05   -0.21748E-04    20   0.135E-01
   2 F= -.22954408E+02 E0= -.22954408E+02  d E =0.481001E-02
 trial-energy change:    0.004810  1 .order    0.004927   -0.003260    0.013114
 step:   0.1991(harm=  0.1991)  dis= 0.00177  next Energy=   -22.959543 (dE=-0.325E-03)
 bond charge predicted
       N       E                     dE             d eps       ncg     rms          rms(c)
DAV:   1    -0.229596393712E+02   -0.52234E-02   -0.55451E-01    24   0.735E+00    0.228E-01
DAV:   2    -0.229597665466E+02   -0.12718E-03   -0.12298E-02    32   0.980E-01    0.917E-02
DAV:   3    -0.229595776046E+02    0.18894E-03   -0.38159E-04    32   0.197E-01    0.408E-02
DAV:   4    -0.229595721267E+02    0.54779E-05   -0.13829E-04    20   0.107E-01
   3 F= -.22959572E+02 E0= -.22959572E+02  d E =-.354027E-03
 curvature:  -0.10 expect dE=-0.502E-06 dE for cont linesearch -0.502E-06
 trial: gam=-0.03780 g(F)=  0.505E-05 g(S)=  0.000E+00 ort = 0.128E-03 (trialstep = 0.840E+00)
 search vector abs. value=  0.791E-08
 reached required accuracy - stopping structural energy minimisation
 writing wavefunctions
NPROCS =  1
