   3   3   0   0
  0.1706667E+03  0.8000000E-09  0.8000000E-09  0.8000000E-09  0.5000000E-15
  1.000000000000000E-004
  CAR 
 unknown system                          
      3.31951853    -30.78517497  301     -7.70588941      1.00000000
    -30.785  0.0000E+00  0.0000E+00
    -30.671  0.0000E+00  0.0000E+00
    -30.558  0.0000E+00  0.0000E+00
    -30.444  0.0000E+00  0.0000E+00
    -30.330  0.0000E+00  0.0000E+00
    -30.217  0.0000E+00  0.0000E+00
    -30.103  0.0000E+00  0.0000E+00
    -29.989  0.0000E+00  0.0000E+00
    -29.876  0.1094E-13  0.1243E-14
    -29.762  0.4330E-11  0.4935E-12
    -29.648  0.9080E-09  0.1037E-09
    -29.535  0.1011E-06  0.1160E-07
    -29.421  0.5993E-05  0.6929E-06
    -29.307  0.1896E-03  0.2225E-04
    -29.194  0.3213E-02  0.3875E-03
    -29.080  0.2925E-01  0.3713E-02
    -28.966  0.1436E+00  0.2004E-01
    -28.853  0.3811E+00  0.6337E-01
    -28.739  0.5479E+00  0.1257E+00
    -28.625  0.4270E+00  0.1742E+00
    -28.512  0.1803E+00  0.1947E+00
    -28.398  0.4120E-01  0.1994E+00
    -28.284  0.5324E-02  0.2000E+00
    -28.170  0.4321E-02  0.2005E+00
    -28.057  0.3440E-01  0.2044E+00
    -27.943  0.1601E+00  0.2226E+00
    -27.829  0.4029E+00  0.2684E+00
    -27.716  0.5494E+00  0.3308E+00
    -27.602  0.4061E+00  0.3770E+00
    -27.488  0.1627E+00  0.3955E+00
    -27.375  0.3523E-01  0.3995E+00
    -27.261  0.4115E-02  0.4000E+00
    -27.147  0.2583E-03  0.4000E+00
    -27.034  0.8689E-05  0.4000E+00
    -26.920  0.1561E-06  0.4000E+00
    -26.806  0.1492E-08  0.4000E+00
    -26.693  0.7580E-11  0.4000E+00
    -26.579  0.2031E-13  0.4000E+00
    -26.465  0.0000E+00  0.4000E+00
    -26.352  0.0000E+00  0.4000E+00
    -26.238  0.0000E+00  0.4000E+00
    -26.124  0.0000E+00  0.4000E+00
    -26.011  0.0000E+00  0.4000E+00
    -25.897  0.0000E+00  0.4000E+00
    -25.783  0.0000E+00  0.4000E+00
    -25.669  0.0000E+00  0.4000E+00
    -25.556  0.0000E+00  0.4000E+00
    -25.442  0.0000E+00  0.4000E+00
    -25.328  0.0000E+00  0.4000E+00
    -25.215  0.0000E+00  0.4000E+00
    -25.101  0.0000E+00  0.4000E+00
    -24.987  0.0000E+00  0.4000E+00
    -24.874  0.0000E+00  0.4000E+00
    -24.760  0.0000E+00  0.4000E+00
    -24.646  0.0000E+00  0.4000E+00
    -24.533  0.0000E+00  0.4000E+00
    -24.419  0.0000E+00  0.4000E+00
    -24.305  0.0000E+00  0.4000E+00
    -24.192  0.0000E+00  0.4000E+00
    -24.078  0.0000E+00  0.4000E+00
    -23.964  0.0000E+00  0.4000E+00
    -23.851  0.0000E+00  0.4000E+00
    -23.737  0.0000E+00  0.4000E+00
    -23.623  0.0000E+00  0.4000E+00
    -23.510  0.0000E+00  0.4000E+00
    -23.396  0.0000E+00  0.4000E+00
    -23.282  0.0000E+00  0.4000E+00
    -23.168  0.0000E+00  0.4000E+00
    -23.055  0.0000E+00  0.4000E+00
    -22.941  0.0000E+00  0.4000E+00
    -22.827  0.0000E+00  0.4000E+00
    -22.714  0.0000E+00  0.4000E+00
    -22.600  0.0000E+00  0.4000E+00
    -22.486  0.0000E+00  0.4000E+00
    -22.373  0.0000E+00  0.4000E+00
    -22.259  0.0000E+00  0.4000E+00
    -22.145  0.0000E+00  0.4000E+00
    -22.032  0.0000E+00  0.4000E+00
    -21.918  0.0000E+00  0.4000E+00
    -21.804  0.0000E+00  0.4000E+00
    -21.691  0.0000E+00  0.4000E+00
    -21.577  0.0000E+00  0.4000E+00
    -21.463  0.0000E+00  0.4000E+00
    -21.350  0.0000E+00  0.4000E+00
    -21.236  0.0000E+00  0.4000E+00
    -21.122  0.0000E+00  0.4000E+00
    -21.008  0.0000E+00  0.4000E+00
    -20.895  0.0000E+00  0.4000E+00
    -20.781  0.0000E+00  0.4000E+00
    -20.667  0.0000E+00  0.4000E+00
    -20.554  0.0000E+00  0.4000E+00
    -20.440  0.0000E+00  0.4000E+00
    -20.326  0.0000E+00  0.4000E+00
    -20.213  0.0000E+00  0.4000E+00
    -20.099  0.0000E+00  0.4000E+00
    -19.985  0.0000E+00  0.4000E+00
    -19.872  0.0000E+00  0.4000E+00
    -19.758  0.0000E+00  0.4000E+00
    -19.644  0.0000E+00  0.4000E+00
    -19.531  0.0000E+00  0.4000E+00
    -19.417  0.0000E+00  0.4000E+00
    -19.303  0.0000E+00  0.4000E+00
    -19.190  0.0000E+00  0.4000E+00
    -19.076  0.0000E+00  0.4000E+00
    -18.962  0.0000E+00  0.4000E+00
    -18.849  0.0000E+00  0.4000E+00
    -18.735  0.0000E+00  0.4000E+00
    -18.621  0.0000E+00  0.4000E+00
    -18.507  0.0000E+00  0.4000E+00
    -18.394  0.0000E+00  0.4000E+00
    -18.280  0.0000E+00  0.4000E+00
    -18.166  0.0000E+00  0.4000E+00
    -18.053  0.0000E+00  0.4000E+00
    -17.939  0.0000E+00  0.4000E+00
    -17.825  0.0000E+00  0.4000E+00
    -17.712  0.0000E+00  0.4000E+00
    -17.598  0.0000E+00  0.4000E+00
    -17.484  0.0000E+00  0.4000E+00
    -17.371  0.0000E+00  0.4000E+00
    -17.257  0.0000E+00  0.4000E+00
    -17.143  0.0000E+00  0.4000E+00
    -17.030  0.0000E+00  0.4000E+00
    -16.916  0.0000E+00  0.4000E+00
    -16.802  0.0000E+00  0.4000E+00
    -16.689  0.0000E+00  0.4000E+00
    -16.575  0.0000E+00  0.4000E+00
    -16.461  0.0000E+00  0.4000E+00
    -16.348  0.0000E+00  0.4000E+00
    -16.234  0.0000E+00  0.4000E+00
    -16.120  0.0000E+00  0.4000E+00
    -16.006  0.0000E+00  0.4000E+00
    -15.893  0.0000E+00  0.4000E+00
    -15.779  0.0000E+00  0.4000E+00
    -15.665  0.0000E+00  0.4000E+00
    -15.552  0.0000E+00  0.4000E+00
    -15.438  0.0000E+00  0.4000E+00
    -15.324  0.0000E+00  0.4000E+00
    -15.211  0.0000E+00  0.4000E+00
    -15.097  0.0000E+00  0.4000E+00
    -14.983  0.0000E+00  0.4000E+00
    -14.870  0.0000E+00  0.4000E+00
    -14.756  0.0000E+00  0.4000E+00
    -14.642  0.0000E+00  0.4000E+00
    -14.529  0.6836E-15  0.4000E+00
    -14.415  0.3436E-12  0.4000E+00
    -14.301  0.9507E-10  0.4000E+00
    -14.188  0.1395E-07  0.4000E+00
    -14.074  0.1089E-05  0.4000E+00
    -13.960  0.4530E-04  0.4000E+00
    -13.847  0.1008E-02  0.4001E+00
    -13.733  0.1203E-01  0.4015E+00
    -13.619  0.7732E-01  0.4103E+00
    -13.505  0.2684E+00  0.4408E+00
    -13.392  0.5042E+00  0.4981E+00
    -13.278  0.5134E+00  0.5565E+00
    -13.164  0.2834E+00  0.5887E+00
    -13.051  0.8468E-01  0.5983E+00
    -12.937  0.1367E-01  0.5999E+00
    -12.823  0.1228E-02  0.6000E+00
    -12.710  0.1139E-02  0.6001E+00
    -12.596  0.1580E-01  0.6019E+00
    -12.482  0.1249E+00  0.6161E+00
    -12.369  0.5374E+00  0.6772E+00
    -12.255  0.1264E+01  0.8209E+00
    -12.141  0.1628E+01  0.1006E+01
    -12.028  0.1152E+01  0.1137E+01
    -11.914  0.4474E+00  0.1188E+01
    -11.800  0.9528E-01  0.1199E+01
    -11.687  0.1110E-01  0.1200E+01
    -11.573  0.7049E-03  0.1200E+01
    -11.459  0.2432E-04  0.1200E+01
    -11.345  0.4538E-06  0.1200E+01
    -11.232  0.4563E-08  0.1200E+01
    -11.118  0.2463E-10  0.1200E+01
    -11.004  0.7149E-13  0.1200E+01
    -10.891  0.0000E+00  0.1200E+01
    -10.777  0.0000E+00  0.1200E+01
    -10.663  0.0000E+00  0.1200E+01
    -10.550  0.0000E+00  0.1200E+01
    -10.436  0.0000E+00  0.1200E+01
    -10.322  0.0000E+00  0.1200E+01
    -10.209  0.0000E+00  0.1200E+01
    -10.095  0.0000E+00  0.1200E+01
     -9.981  0.0000E+00  0.1200E+01
     -9.868  0.0000E+00  0.1200E+01
     -9.754  0.7813E-14  0.1200E+01
     -9.640  0.3457E-11  0.1200E+01
     -9.527  0.8026E-09  0.1200E+01
     -9.413  0.9893E-07  0.1200E+01
     -9.299  0.6488E-05  0.1200E+01
     -9.186  0.2270E-03  0.1200E+01
     -9.072  0.4252E-02  0.1201E+01
     -8.958  0.4277E-01  0.1205E+01
     -8.844  0.2318E+00  0.1232E+01
     -8.731  0.6791E+00  0.1309E+01
     -8.617  0.1077E+01  0.1431E+01
     -8.503  0.9265E+00  0.1537E+01
     -8.390  0.4318E+00  0.1586E+01
     -8.276  0.1089E+00  0.1598E+01
     -8.162  0.1482E-01  0.1600E+01
     -8.049  0.1085E-02  0.1600E+01
     -7.935  0.4259E-04  0.1600E+01
     -7.821  0.8934E-06  0.1600E+01
     -7.708  0.9986E-08  0.1600E+01
     -7.594  0.5931E-10  0.1600E+01
     -7.480  0.1867E-12  0.1600E+01
     -7.367  0.3906E-15  0.1600E+01
     -7.253  0.0000E+00  0.1600E+01
     -7.139  0.0000E+00  0.1600E+01
     -7.026  0.0000E+00  0.1600E+01
     -6.912  0.0000E+00  0.1600E+01
     -6.798  0.0000E+00  0.1600E+01
     -6.685  0.0000E+00  0.1600E+01
     -6.571  0.0000E+00  0.1600E+01
     -6.457  0.0000E+00  0.1600E+01
     -6.343  0.0000E+00  0.1600E+01
     -6.230  0.0000E+00  0.1600E+01
     -6.116  0.0000E+00  0.1600E+01
     -6.002  0.0000E+00  0.1600E+01
     -5.889  0.0000E+00  0.1600E+01
     -5.775  0.0000E+00  0.1600E+01
     -5.661  0.0000E+00  0.1600E+01
     -5.548  0.0000E+00  0.1600E+01
     -5.434  0.0000E+00  0.1600E+01
     -5.320  0.0000E+00  0.1600E+01
     -5.207  0.0000E+00  0.1600E+01
     -5.093  0.0000E+00  0.1600E+01
     -4.979  0.0000E+00  0.1600E+01
     -4.866  0.0000E+00  0.1600E+01
     -4.752  0.0000E+00  0.1600E+01
     -4.638  0.0000E+00  0.1600E+01
     -4.525  0.0000E+00  0.1600E+01
     -4.411  0.0000E+00  0.1600E+01
     -4.297  0.0000E+00  0.1600E+01
     -4.184  0.0000E+00  0.1600E+01
     -4.070  0.0000E+00  0.1600E+01
     -3.956  0.0000E+00  0.1600E+01
     -3.842  0.0000E+00  0.1600E+01
     -3.729  0.0000E+00  0.1600E+01
     -3.615  0.0000E+00  0.1600E+01
     -3.501  0.0000E+00  0.1600E+01
     -3.388  0.0000E+00  0.1600E+01
     -3.274  0.0000E+00  0.1600E+01
     -3.160  0.0000E+00  0.1600E+01
     -3.047  0.0000E+00  0.1600E+01
     -2.933  0.0000E+00  0.1600E+01
     -2.819  0.0000E+00  0.1600E+01
     -2.706  0.0000E+00  0.1600E+01
     -2.592  0.0000E+00  0.1600E+01
     -2.478  0.0000E+00  0.1600E+01
     -2.365  0.0000E+00  0.1600E+01
     -2.251  0.0000E+00  0.1600E+01
     -2.137  0.0000E+00  0.1600E+01
     -2.024  0.2930E-15  0.1600E+01
     -1.910  0.1769E-12  0.1600E+01
     -1.796  0.5250E-10  0.1600E+01
     -1.683  0.8267E-08  0.1600E+01
     -1.569  0.6920E-06  0.1600E+01
     -1.455  0.3087E-04  0.1600E+01
     -1.341  0.7362E-03  0.1600E+01
     -1.228  0.9417E-02  0.1601E+01
     -1.114  0.6482E-01  0.1609E+01
     -1.000  0.2409E+00  0.1636E+01
     -0.887  0.4845E+00  0.1691E+01
     -0.773  0.5281E+00  0.1751E+01
     -0.659  0.3125E+00  0.1787E+01
     -0.546  0.1070E+00  0.1799E+01
     -0.432  0.8078E-01  0.1808E+01
     -0.318  0.3052E+00  0.1843E+01
     -0.205  0.7844E+00  0.1932E+01
     -0.091  0.1098E+01  0.2057E+01
      0.023  0.8331E+00  0.2151E+01
      0.136  0.3425E+00  0.2190E+01
      0.250  0.7617E-01  0.2199E+01
      0.364  0.9135E-02  0.2200E+01
      0.477  0.5890E-03  0.2200E+01
      0.591  0.2057E-04  0.2200E+01
      0.705  0.1231E-04  0.2200E+01
      0.819  0.3362E-03  0.2200E+01
      0.932  0.5075E-02  0.2201E+01
      1.046  0.4119E-01  0.2205E+01
      1.160  0.1803E+00  0.2226E+01
      1.273  0.4270E+00  0.2274E+01
      1.387  0.5479E+00  0.2337E+01
      1.501  0.3811E+00  0.2380E+01
      1.614  0.1436E+00  0.2396E+01
      1.728  0.2925E-01  0.2400E+01
      1.842  0.3213E-02  0.2400E+01
      1.955  0.1896E-03  0.2400E+01
      2.069  0.5993E-05  0.2400E+01
      2.183  0.1011E-06  0.2400E+01
      2.296  0.9080E-09  0.2400E+01
      2.410  0.4330E-11  0.2400E+01
      2.524  0.1094E-13  0.2400E+01
      2.637  0.0000E+00  0.2400E+01
      2.751  0.0000E+00  0.2400E+01
      2.865  0.0000E+00  0.2400E+01
      2.978  0.0000E+00  0.2400E+01
      3.092  0.0000E+00  0.2400E+01
      3.206  0.0000E+00  0.2400E+01
      3.320  0.0000E+00  0.2400E+01
