<?xml version="1.0" encoding="ISO-8859-1"?>
<modeling>
 <generator>
  <i name="program" type="string">vasp </i>
  <i name="version" type="string">5.2.12  </i>
  <i name="subversion" type="string">11Nov11 complex                                                      parallel </i>
  <i name="platform" type="string">LinuxIFC </i>
  <i name="date" type="string">2012 10 10 </i>
  <i name="time" type="string">15:28:34 </i>
 </generator>
 <incar>
  <i type="string" name="PREC">normal</i>
  <i type="int" name="IBRION">     2</i>
  <i type="int" name="NSW">    10</i>
  <i name="ENCUT">    350.00000000</i>
  <i type="int" name="ISMEAR">     0</i>
 </incar>
 <kpoints>
  <generation param="Monkhorst-Pack">
   <v type="int" name="divisions">       1        1        1 </v>
   <v name="usershift">      0.00000000       0.00000000       0.00000000 </v>
   <v name="genvec1">      1.00000000       0.00000000       0.00000000 </v>
   <v name="genvec2">      0.00000000       1.00000000       0.00000000 </v>
   <v name="genvec3">      0.00000000       0.00000000       1.00000000 </v>
   <v name="shift">      0.00000000       0.00000000       0.00000000 </v>
  </generation>
  <varray name="kpointlist" >
   <v>       0.00000000       0.00000000       0.00000000 </v>
  </varray>
  <varray name="weights" >
   <v>       1.00000000 </v>
  </varray>
 </kpoints>
 <parameters>
  <separator name="general" >
   <i type="string" name="SYSTEM">unknown system</i>
   <i type="logical" name="LCOMPAT"> F  </i>
  </separator>
  <separator name="electronic" >
   <i type="string" name="PREC">normal</i>
   <i name="ENMAX">    350.00000000</i>
   <i name="ENAUG">    644.87300000</i>
   <i name="EDIFF">      0.00010000</i>
   <i type="int" name="IALGO">    38</i>
   <i type="int" name="IWAVPR">    11</i>
   <i type="int" name="NBANDS">    12</i>
   <i name="NELECT">     16.00000000</i>
   <i type="int" name="TURBO">     0</i>
   <i type="int" name="IRESTART">     0</i>
   <i type="int" name="NREBOOT">     0</i>
   <i type="int" name="NMIN">     0</i>
   <i name="EREF">      0.00000000</i>
   <separator name="electronic smearing" >
    <i type="int" name="ISMEAR">     0</i>
    <i name="SIGMA">      0.20000000</i>
    <i name="KSPACING">      0.50000000</i>
    <i type="logical" name="KGAMMA"> T  </i>
   </separator>
   <separator name="electronic projectors" >
    <i type="logical" name="LREAL"> F  </i>
    <v name="ROPT">      0.00000000      0.00000000</v>
    <i type="int" name="LMAXPAW">  -100</i>
    <i type="int" name="LMAXMIX">     2</i>
    <i type="logical" name="NLSPLINE"> F  </i>
   </separator>
   <separator name="electronic startup" >
    <i type="int" name="ISTART">     0</i>
    <i type="int" name="ICHARG">     2</i>
    <i type="int" name="INIWAV">     1</i>
   </separator>
   <separator name="electronic spin" >
    <i type="int" name="ISPIN">     1</i>
    <i type="logical" name="LNONCOLLINEAR"> F  </i>
    <v name="MAGMOM">      1.00000000      1.00000000      1.00000000</v>
    <i name="NUPDOWN">     -1.00000000</i>
    <i type="logical" name="LSORBIT"> F  </i>
    <v name="SAXIS">      0.00000000      0.00000000      1.00000000</v>
    <i type="logical" name="LSPIRAL"> F  </i>
    <v name="QSPIRAL">      0.00000000      0.00000000      0.00000000</v>
    <i type="logical" name="LZEROZ"> F  </i>
   </separator>
   <separator name="electronic exchange-correlation" >
    <i type="logical" name="LASPH"> F  </i>
    <i type="logical" name="LMETAGGA"> F  </i>
   </separator>
   <separator name="electronic convergence" >
    <i type="int" name="NELM">    60</i>
    <i type="int" name="NELMDL">    -5</i>
    <i type="int" name="NELMIN">     2</i>
    <i name="ENINI">    350.00000000</i>
    <separator name="electronic convergence detail" >
     <i type="logical" name="LDIAG"> T  </i>
     <i type="logical" name="LSUBROT"> T  </i>
     <i name="WEIMIN">      0.00100000</i>
     <i name="EBREAK">      0.00000208</i>
     <i name="DEPER">      0.30000000</i>
     <i type="int" name="NRMM">     4</i>
     <i name="TIME">      0.40000000</i>
    </separator>
   </separator>
   <separator name="electronic mixer" >
    <i name="AMIX">      0.40000000</i>
    <i name="BMIX">      1.00000000</i>
    <i name="AMIN">      0.10000000</i>
    <i name="AMIX_MAG">      1.60000000</i>
    <i name="BMIX_MAG">      1.00000000</i>
    <separator name="electronic mixer details" >
     <i type="int" name="IMIX">     4</i>
     <i type="int" name="MAXMIX">   -45</i>
     <i name="WC">    100.00000000</i>
     <i type="int" name="INIMIX">     1</i>
     <i type="int" name="MIXPRE">     1</i>
     <i type="int" name="MREMOVE">     5</i>
    </separator>
   </separator>
   <separator name="electronic dipolcorrection" >
    <i type="logical" name="LDIPOL"> F  </i>
    <i type="logical" name="LMONO"> F  </i>
    <i type="int" name="IDIPOL">     0</i>
    <i name="EPSILON">      1.00000000</i>
    <v name="DIPOL">   -100.00000000   -100.00000000   -100.00000000</v>
    <i name="EFIELD">      0.00000000</i>
   </separator>
  </separator>
  <separator name="grids" >
   <i type="int" name="NGX">    40</i>
   <i type="int" name="NGY">    40</i>
   <i type="int" name="NGZ">    40</i>
   <i type="int" name="NGXF">    80</i>
   <i type="int" name="NGYF">    80</i>
   <i type="int" name="NGZF">    80</i>
   <i type="logical" name="ADDGRID"> F  </i>
  </separator>
  <separator name="ionic" >
   <i type="int" name="NSW">    10</i>
   <i type="int" name="IBRION">     2</i>
   <i type="int" name="ISIF">     2</i>
   <i name="PSTRESS">      0.00000000</i>
   <i name="EDIFFG">      0.00100000</i>
   <i type="int" name="NFREE">     1</i>
   <i name="POTIM">      0.50000000</i>
   <i name="SMASS">     -3.00000000</i>
   <i name="SCALEE">      1.00000000</i>
  </separator>
  <separator name="ionic md" >
   <i name="TEBEG">      0.00010000</i>
   <i name="TEEND">      0.00010000</i>
   <i type="int" name="NBLOCK">     1</i>
   <i type="int" name="KBLOCK">    10</i>
   <i type="int" name="NPACO">   256</i>
   <i name="APACO">     16.00000000</i>
  </separator>
  <separator name="symmetry" >
   <i type="int" name="ISYM">     2</i>
   <i name="SYMPREC">      0.00001000</i>
  </separator>
  <separator name="dos" >
   <i type="logical" name="LORBIT"> F  </i>
   <v name="RWIGS">     -1.00000000     -1.00000000</v>
   <i type="int" name="NEDOS">   301</i>
   <i name="EMIN">     10.00000000</i>
   <i name="EMAX">    -10.00000000</i>
   <i name="EFERMI">      0.00000000</i>
  </separator>
  <separator name="writing" >
   <i type="int" name="NWRITE">     2</i>
   <i type="logical" name="LWAVE"> T  </i>
   <i type="logical" name="LCHARG"> T  </i>
   <i type="logical" name="LPARD"> F  </i>
   <i type="logical" name="LVTOT"> F  </i>
   <i type="logical" name="LVHAR"> F  </i>
   <i type="logical" name="LELF"> F  </i>
   <i type="logical" name="LOPTICS"> F  </i>
   <v name="STM">      0.00000000      0.00000000      0.00000000      0.00000000      0.00000000      0.00000000      0.00000000</v>
  </separator>
  <separator name="performance" >
   <i type="int" name="NPAR">     1</i>
   <i type="int" name="NSIM">     4</i>
   <i type="int" name="NBLK">    -1</i>
   <i type="logical" name="LPLANE"> T  </i>
   <i type="logical" name="LSCALAPACK"> F  </i>
   <i type="logical" name="LSCAAWARE"> F  </i>
   <i type="logical" name="LSCALU"> F  </i>
   <i type="logical" name="LASYNC"> F  </i>
   <i type="logical" name="LORBITALREAL"> F  </i>
  </separator>
  <separator name="miscellaneous" >
   <i type="int" name="IDIOT">     3</i>
   <i type="logical" name="LMUSIC"> F  </i>
   <v name="POMASS">     12.01100000     16.00000000</v>
   <v name="DARWINR">      0.00000000      0.00000000</v>
   <v name="DARWINV">      1.00000000      1.00000000</v>
   <i type="logical" name="LCORR"> T  </i>
  </separator>
  <i type="logical" name="GGA_COMPAT"> T  </i>
  <i type="logical" name="LBERRY"> F  </i>
  <i type="int" name="ICORELEVEL">     0</i>
  <i type="logical" name="LDAU"> F  </i>
  <i type="int" name="I_CONSTRAINED_M">     0</i>
  <separator name="electronic exchange-correlation" >
   <i type="string" name="GGA">--</i>
   <i type="int" name="VOSKOWN">     0</i>
   <i type="logical" name="LHFCALC"> F  </i>
   <i type="string" name="PRECFOCK"></i>
   <i type="logical" name="LHFONE"> F  </i>
   <i type="logical" name="LRHFCALC"> F  </i>
   <i type="logical" name="LTHOMAS"> F  </i>
   <i type="logical" name="LMODELHF"> F  </i>
   <i name="ENCUT4O">     -1.00000000</i>
   <i type="int" name="EXXOEP">     0</i>
   <i type="int" name="FOURORBIT">     0</i>
   <i name="AEXX">      0.00000000</i>
   <i name="HFALPHA">      0.00000000</i>
   <i name="ALDAX">      1.00000000</i>
   <i name="AGGAX">      1.00000000</i>
   <i name="ALDAC">      1.00000000</i>
   <i name="AGGAC">      1.00000000</i>
   <i type="int" name="NKREDX">     1</i>
   <i type="int" name="NKREDY">     1</i>
   <i type="int" name="NKREDZ">     1</i>
   <i type="logical" name="SHIFTRED"> F  </i>
   <i type="logical" name="ODDONLY"> F  </i>
   <i type="logical" name="EVENONLY"> F  </i>
   <i type="int" name="LMAXFOCK">     0</i>
   <i type="int" name="NMAXFOCKAE">     0</i>
   <i type="logical" name="LFOCKAEDFT"> F  </i>
   <i name="HFSCREEN">      0.00000000</i>
   <i name="HFSCREENC">      0.00000000</i>
  </separator>
  <separator name="vdW DFT" >
   <i type="logical" name="LUSE_VDW"> F  </i>
   <i name="Zab_VDW">     -0.84910000</i>
   <i name="PARAM1">      0.12340000</i>
   <i name="PARAM2">      1.00000000</i>
   <i name="PARAM3">      0.00000000</i>
  </separator>
  <separator name="model GW" >
   <i type="int" name="MODEL_GW">     0</i>
   <i name="MODEL_EPS0">    102.40000000</i>
   <i name="MODEL_ALPHA">      1.00000000</i>
  </separator>
  <separator name="linear response parameters" >
   <i type="logical" name="LEPSILON"> F  </i>
   <i type="logical" name="LRPA"> F  </i>
   <i type="logical" name="LNABLA"> F  </i>
   <i type="logical" name="LVEL"> F  </i>
   <i type="int" name="KINTER">     0</i>
   <i name="CSHIFT">      0.10000000</i>
   <i name="OMEGAMAX">     -1.00000000</i>
  </separator>
  <separator name="orbital magnetization" >
   <i type="logical" name="NUCIND"> F  </i>
   <v name="MAGPOS">      0.00000000      0.00000000      0.00000000</v>
   <i type="logical" name="LNICSALL"> T  </i>
   <i type="logical" name="ORBITALMAG"> F  </i>
   <i type="logical" name="LMAGBLOCH"> F  </i>
   <i type="logical" name="LCHIMAG"> F  </i>
   <i type="logical" name="LGAUGE"> T  </i>
   <i type="int" name="MAGATOM">     0</i>
   <v name="MAGDIPOL">      0.00000000      0.00000000      0.00000000</v>
   <v name="AVECCONST">      0.00000000      0.00000000      0.00000000</v>
  </separator>
  <separator name="response functions" >
   <i type="logical" name="LADDER"> F  </i>
   <i type="logical" name="LHARTREE"> T  </i>
   <i type="int" name="IBSE">     0</i>
   <i type="logical" name="LTCTE"> F  </i>
   <i type="logical" name="LTETE"> F  </i>
   <i type="logical" name="LFXCEPS"> F  </i>
   <i type="logical" name="L2ORDER"> F  </i>
   <i type="logical" name="LUSEW"> F  </i>
   <i name="ENCUTGW">     -2.00000000</i>
   <i name="ENCUTGWSOFT">     -2.00000000</i>
   <i name="ENCUTLF">     -1.00000000</i>
   <i type="int" name="LMAXMP2">    -1</i>
   <i name="SCISSOR">      0.00000000</i>
   <i type="int" name="NOMEGA">     0</i>
   <i type="int" name="NOMEGAR">     0</i>
   <i type="int" name="NBANDSGW">    -1</i>
   <i type="int" name="NBANDSO">    -1</i>
   <i type="int" name="NBANDSV">    -1</i>
   <i name="OPTEMAX">      0.00000000</i>
   <i type="int" name="NELM">     1</i>
   <i type="int" name="DIM">     3</i>
   <i type="int" name="ANTIRES">     0</i>
   <i name="OMEGAMAX">    -30.00000000</i>
   <i name="OMEGATL">   -200.00000000</i>
   <i type="int" name="OMEGAGRID">     0</i>
   <i name="CSHIFT">     -0.10000000</i>
   <i type="logical" name="SELFENERGY"> F  </i>
   <i type="logical" name="LSPECTRAL"> F  </i>
   <i type="logical" name="ODDONLYGW"> F  </i>
   <i type="logical" name="EVENONLYGW"> F  </i>
   <i type="int" name="NKREDLFX">     1</i>
   <i type="int" name="NKREDLFY">     1</i>
   <i type="int" name="NKREDLFZ">     1</i>
   <i type="int" name="MAXMEM">  1800</i>
   <i type="int" name="TELESCOPE">     0</i>
  </separator>
 </parameters>
 <atominfo>
  <atoms>       3 </atoms>
  <types>       2 </types>
  <array name="atoms" >
   <dimension dim="1">ion</dimension>
   <field type="string">element</field>
   <field type="int">atomtype</field>
   <set>
    <rc><c>C </c><c>   1</c></rc>
    <rc><c>O </c><c>   2</c></rc>
    <rc><c>O </c><c>   2</c></rc>
   </set>
  </array>
  <array name="atomtypes" >
   <dimension dim="1">type</dimension>
   <field type="int">atomspertype</field>
   <field type="string">element</field>
   <field>mass</field>
   <field>valence</field>
   <field type="string">pseudopotential</field>
   <set>
    <rc><c>   1</c><c>C </c><c>     12.01100000</c><c>      4.00000000</c><c> PAW_PBE C 08Apr2002                    </c></rc>
    <rc><c>   2</c><c>O </c><c>     16.00000000</c><c>      6.00000000</c><c> PAW_PBE O 08Apr2002                    </c></rc>
   </set>
  </array>
 </atominfo>
 <structure name="initialpos" >
  <crystal>
   <varray name="basis" >
    <v>       8.00000000       0.00000000       0.00000000 </v>
    <v>       0.00000000       8.00000000       0.00000000 </v>
    <v>       0.00000000       0.00000000       8.00000000 </v>
   </varray>
   <i name="volume">    512.00000000 </i>
   <varray name="rec_basis" >
    <v>       0.12500000       0.00000000       0.00000000 </v>
    <v>       0.00000000       0.12500000       0.00000000 </v>
    <v>       0.00000000       0.00000000       0.12500000 </v>
   </varray>
  </crystal>
  <varray name="positions" >
   <v>       0.50000000       0.50000000       0.50000000 </v>
   <v>       0.50000000       0.50000000       0.64733225 </v>
   <v>       0.50000000       0.50000000       0.35266775 </v>
  </varray>
 </structure>
 <calculation>
  <scstep>
   <time name="dav">    0.49    0.49</time>
   <time name="total">    1.28    1.29</time>
   <energy>
    <i name="alphaZ">      2.08377909 </i>
    <i name="ewald">    170.01906707 </i>
    <i name="hartreedc">   -986.67340058 </i>
    <i name="XCdc">     68.20544515 </i>
    <i name="pawpsdc">    529.82824833 </i>
    <i name="pawaedc">   -534.67809926 </i>
    <i name="eentropy">     -0.00011817 </i>
    <i name="bandstr">   -154.47498383 </i>
    <i name="atom">   1011.07184495 </i>
    <i name="e_fr_energy">    105.38178275 </i>
    <i name="e_wo_entrp">    105.38190093 </i>
    <i name="e_0_energy">    105.38184184 </i>
   </energy>
  </scstep>
  <scstep>
   <time name="dav">    0.67    0.67</time>
   <time name="total">    0.67    0.68</time>
   <energy>
    <i name="e_fr_energy">    -13.17551138 </i>
    <i name="e_wo_entrp">    -13.17551138 </i>
    <i name="e_0_energy">    -13.17551138 </i>
   </energy>
  </scstep>
  <scstep>
   <time name="dav">    0.48    0.48</time>
   <time name="total">    0.48    0.49</time>
   <energy>
    <i name="e_fr_energy">    -24.23635923 </i>
    <i name="e_wo_entrp">    -24.23635923 </i>
    <i name="e_0_energy">    -24.23635923 </i>
   </energy>
  </scstep>
  <scstep>
   <time name="dav">    0.52    0.52</time>
   <time name="total">    0.52    0.54</time>
   <energy>
    <i name="e_fr_energy">    -24.51403984 </i>
    <i name="e_wo_entrp">    -24.51403984 </i>
    <i name="e_0_energy">    -24.51403984 </i>
   </energy>
  </scstep>
  <scstep>
   <time name="dav">    0.48    0.48</time>
   <time name="total">    0.61    0.63</time>
   <energy>
    <i name="e_fr_energy">    -24.51529796 </i>
    <i name="e_wo_entrp">    -24.51529796 </i>
    <i name="e_0_energy">    -24.51529796 </i>
   </energy>
  </scstep>
  <scstep>
   <time name="dav">    0.43    0.43</time>
   <time name="total">    1.32    1.33</time>
   <energy>
    <i name="e_fr_energy">    -23.11773227 </i>
    <i name="e_wo_entrp">    -23.11773227 </i>
    <i name="e_0_energy">    -23.11773227 </i>
   </energy>
  </scstep>
  <scstep>
   <time name="dav">    0.43    0.43</time>
   <time name="total">    1.32    1.33</time>
   <energy>
    <i name="e_fr_energy">    -23.00450293 </i>
    <i name="e_wo_entrp">    -23.00450293 </i>
    <i name="e_0_energy">    -23.00450293 </i>
   </energy>
  </scstep>
  <scstep>
   <time name="dav">    0.43    0.43</time>
   <time name="total">    1.31    1.35</time>
   <energy>
    <i name="e_fr_energy">    -22.95188803 </i>
    <i name="e_wo_entrp">    -22.95188803 </i>
    <i name="e_0_energy">    -22.95188803 </i>
   </energy>
  </scstep>
  <scstep>
   <time name="dav">    0.43    0.43</time>
   <time name="total">    1.30    1.32</time>
   <energy>
    <i name="e_fr_energy">    -22.94987019 </i>
    <i name="e_wo_entrp">    -22.94987019 </i>
    <i name="e_0_energy">    -22.94987019 </i>
   </energy>
  </scstep>
  <scstep>
   <time name="dav">    0.48    0.48</time>
   <time name="total">    1.36    1.37</time>
   <energy>
    <i name="e_fr_energy">    -22.95116602 </i>
    <i name="e_wo_entrp">    -22.95116602 </i>
    <i name="e_0_energy">    -22.95116602 </i>
   </energy>
  </scstep>
  <scstep>
   <time name="dav">    0.39    0.39</time>
   <time name="total">    1.26    1.28</time>
   <energy>
    <i name="e_fr_energy">    -22.95609210 </i>
    <i name="e_wo_entrp">    -22.95609210 </i>
    <i name="e_0_energy">    -22.95609210 </i>
   </energy>
  </scstep>
  <scstep>
   <time name="dav">    0.30    0.30</time>
   <time name="total">    1.18    1.19</time>
   <energy>
    <i name="e_fr_energy">    -22.95737276 </i>
    <i name="e_wo_entrp">    -22.95737276 </i>
    <i name="e_0_energy">    -22.95737276 </i>
   </energy>
  </scstep>
  <scstep>
   <time name="dav">    0.44    0.44</time>
   <time name="total">    1.31    1.32</time>
   <energy>
    <i name="e_fr_energy">    -22.95895095 </i>
    <i name="e_wo_entrp">    -22.95895095 </i>
    <i name="e_0_energy">    -22.95895095 </i>
   </energy>
  </scstep>
  <scstep>
   <time name="dav">    0.35    0.35</time>
   <time name="total">    1.22    1.23</time>
   <energy>
    <i name="e_fr_energy">    -22.95912613 </i>
    <i name="e_wo_entrp">    -22.95912613 </i>
    <i name="e_0_energy">    -22.95912613 </i>
   </energy>
  </scstep>
  <scstep>
   <time name="dav">    0.40    0.40</time>
   <time name="total">    1.15    1.16</time>
   <energy>
    <i name="alphaZ">      2.08377909 </i>
    <i name="ewald">    170.01906707 </i>
    <i name="hartreedc">  -1023.91526985 </i>
    <i name="XCdc">     70.25577697 </i>
    <i name="pawpsdc">    708.06628927 </i>
    <i name="pawaedc">   -712.95925992 </i>
    <i name="eentropy">      0.00000000 </i>
    <i name="bandstr">   -247.58144569 </i>
    <i name="atom">   1011.07184495 </i>
    <i name="e_fr_energy">    -22.95921810 </i>
    <i name="e_wo_entrp">    -22.95921810 </i>
    <i name="e_0_energy">    -22.95921810 </i>
   </energy>
  </scstep>
  <parameters_embedded>
   <separator name="dft+d2" >
    <i type="logical" name="LVDW"> F  </i>
   </separator>
  </parameters_embedded>
  <structure>
   <crystal>
    <varray name="basis" >
     <v>       8.00000000       0.00000000       0.00000000 </v>
     <v>       0.00000000       8.00000000       0.00000000 </v>
     <v>       0.00000000       0.00000000       8.00000000 </v>
    </varray>
    <i name="volume">    512.00000000 </i>
    <varray name="rec_basis" >
     <v>       0.12500000       0.00000000       0.00000000 </v>
     <v>       0.00000000       0.12500000       0.00000000 </v>
     <v>       0.00000000       0.00000000       0.12500000 </v>
    </varray>
   </crystal>
   <varray name="positions" >
    <v>       0.50000000       0.50000000       0.50000000 </v>
    <v>       0.50000000       0.50000000       0.64733225 </v>
    <v>       0.50000000       0.50000000       0.35266775 </v>
   </varray>
  </structure>
  <varray name="forces" >
   <v>       0.00000000       0.00000000       0.00000000 </v>
   <v>       0.00000000       0.00000000      -0.18381032 </v>
   <v>       0.00000000       0.00000000       0.18381032 </v>
  </varray>
  <varray name="stress" >
   <v>     -14.89545251       0.00000000       0.00000000 </v>
   <v>       0.00000000     -14.89545251       0.00000000 </v>
   <v>       0.00000000       0.00000000     -14.39441272 </v>
  </varray>
  <energy>
   <i name="e_fr_energy">    -22.95921810 </i>
   <i name="e_wo_entrp">    -22.95921810 </i>
   <i name="e_0_energy">      0.00000000 </i>
  </energy>
  <time name="totalsc">   18.91   19.24</time>
 </calculation>
 <calculation>
  <scstep>
   <time name="dav">    0.44    0.44</time>
   <time name="total">    1.34    1.34</time>
   <energy>
    <i name="alphaZ">      2.08377909 </i>
    <i name="ewald">    175.84506953 </i>
    <i name="hartreedc">  -1027.88863822 </i>
    <i name="XCdc">     70.33209070 </i>
    <i name="pawpsdc">    708.08706889 </i>
    <i name="pawaedc">   -712.98033893 </i>
    <i name="eentropy">      0.00000000 </i>
    <i name="bandstr">   -249.50529263 </i>
    <i name="atom">   1011.07184495 </i>
    <i name="e_fr_energy">    -22.95441661 </i>
    <i name="e_wo_entrp">    -22.95441661 </i>
    <i name="e_0_energy">    -22.95441661 </i>
   </energy>
  </scstep>
  <scstep>
   <time name="dav">    0.49    0.49</time>
   <time name="total">    1.39    1.48</time>
   <energy>
    <i name="e_fr_energy">    -22.95471266 </i>
    <i name="e_wo_entrp">    -22.95471266 </i>
    <i name="e_0_energy">    -22.95471266 </i>
   </energy>
  </scstep>
  <scstep>
   <time name="dav">    0.48    0.49</time>
   <time name="total">    1.40    1.41</time>
   <energy>
    <i name="e_fr_energy">    -22.95441595 </i>
    <i name="e_wo_entrp">    -22.95441595 </i>
    <i name="e_0_energy">    -22.95441595 </i>
   </energy>
  </scstep>
  <scstep>
   <time name="dav">    0.35    0.35</time>
   <time name="total">    1.13    1.16</time>
   <energy>
    <i name="alphaZ">      2.08377909 </i>
    <i name="ewald">    175.84506953 </i>
    <i name="hartreedc">  -1029.15590690 </i>
    <i name="XCdc">     70.39589487 </i>
    <i name="pawpsdc">    713.46593372 </i>
    <i name="pawaedc">   -718.38530030 </i>
    <i name="eentropy">      0.00000000 </i>
    <i name="bandstr">   -248.27572306 </i>
    <i name="atom">   1011.07184495 </i>
    <i name="e_fr_energy">    -22.95440809 </i>
    <i name="e_wo_entrp">    -22.95440809 </i>
    <i name="e_0_energy">    -22.95440809 </i>
   </energy>
  </scstep>
  <structure>
   <crystal>
    <varray name="basis" >
     <v>       8.00000000       0.00000000       0.00000000 </v>
     <v>       0.00000000       8.00000000       0.00000000 </v>
     <v>       0.00000000       0.00000000       8.00000000 </v>
    </varray>
    <i name="volume">    512.00000000 </i>
    <varray name="rec_basis" >
     <v>       0.12500000       0.00000000       0.00000000 </v>
     <v>       0.00000000       0.12500000       0.00000000 </v>
     <v>       0.00000000       0.00000000       0.12500000 </v>
    </varray>
   </crystal>
   <varray name="positions" >
    <v>       0.50000000       0.50000000       0.50000000 </v>
    <v>       0.50000000       0.50000000       0.64622381 </v>
    <v>       0.50000000       0.50000000       0.35377619 </v>
   </varray>
  </structure>
  <varray name="forces" >
   <v>       0.00000000       0.00000000       0.00000000 </v>
   <v>       0.00000000       0.00000000       0.73945145 </v>
   <v>       0.00000000       0.00000000      -0.73945145 </v>
  </varray>
  <varray name="stress" >
   <v>     -14.87011577       0.00000000       0.00000000 </v>
   <v>       0.00000000     -14.87011577       0.00000000 </v>
   <v>       0.00000000       0.00000000      -7.72150140 </v>
  </varray>
  <energy>
   <i name="e_fr_energy">    -22.95440809 </i>
   <i name="e_wo_entrp">    -22.95440809 </i>
   <i name="e_0_energy">      0.00000000 </i>
  </energy>
  <time name="totalsc">    6.92    7.09</time>
 </calculation>
 <calculation>
  <scstep>
   <time name="dav">    0.39    0.39</time>
   <time name="total">    1.30    1.31</time>
   <energy>
    <i name="alphaZ">      2.08377909 </i>
    <i name="ewald">    171.17137383 </i>
    <i name="hartreedc">  -1025.97036660 </i>
    <i name="XCdc">     70.33480200 </i>
    <i name="pawpsdc">    713.74330180 </i>
    <i name="pawaedc">   -718.66421420 </i>
    <i name="eentropy">      0.00000000 </i>
    <i name="bandstr">   -246.73016024 </i>
    <i name="atom">   1011.07184495 </i>
    <i name="e_fr_energy">    -22.95963937 </i>
    <i name="e_wo_entrp">    -22.95963937 </i>
    <i name="e_0_energy">    -22.95963937 </i>
   </energy>
  </scstep>
  <scstep>
   <time name="dav">    0.49    0.49</time>
   <time name="total">    1.40    1.40</time>
   <energy>
    <i name="e_fr_energy">    -22.95976655 </i>
    <i name="e_wo_entrp">    -22.95976655 </i>
    <i name="e_0_energy">    -22.95976655 </i>
   </energy>
  </scstep>
  <scstep>
   <time name="dav">    0.48    0.49</time>
   <time name="total">    1.39    1.40</time>
   <energy>
    <i name="e_fr_energy">    -22.95957760 </i>
    <i name="e_wo_entrp">    -22.95957760 </i>
    <i name="e_0_energy">    -22.95957760 </i>
   </energy>
  </scstep>
  <scstep>
   <time name="dav">    0.35    0.35</time>
   <time name="total">    1.12    1.13</time>
   <energy>
    <i name="alphaZ">      2.08377909 </i>
    <i name="ewald">    171.17137383 </i>
    <i name="hartreedc">  -1024.95751525 </i>
    <i name="XCdc">     70.28321845 </i>
    <i name="pawpsdc">    709.55919932 </i>
    <i name="pawaedc">   -714.45952664 </i>
    <i name="eentropy">      0.00000000 </i>
    <i name="bandstr">   -247.71194588 </i>
    <i name="atom">   1011.07184495 </i>
    <i name="e_fr_energy">    -22.95957213 </i>
    <i name="e_wo_entrp">    -22.95957213 </i>
    <i name="e_0_energy">    -22.95957213 </i>
   </energy>
  </scstep>
  <structure>
   <crystal>
    <varray name="basis" >
     <v>       8.00000000       0.00000000       0.00000000 </v>
     <v>       0.00000000       8.00000000       0.00000000 </v>
     <v>       0.00000000       0.00000000       8.00000000 </v>
    </varray>
    <i name="volume">    512.00000000 </i>
    <varray name="rec_basis" >
     <v>       0.12500000       0.00000000       0.00000000 </v>
     <v>       0.00000000       0.12500000       0.00000000 </v>
     <v>       0.00000000       0.00000000       0.12500000 </v>
    </varray>
   </crystal>
   <varray name="positions" >
    <v>       0.50000000       0.50000000       0.50000000 </v>
    <v>       0.50000000       0.50000000       0.64711157 </v>
    <v>       0.50000000       0.50000000       0.35288843 </v>
   </varray>
  </structure>
  <varray name="forces" >
   <v>       0.00000000       0.00000000       0.00000000 </v>
   <v>       0.00000000       0.00000000      -0.00723249 </v>
   <v>       0.00000000       0.00000000       0.00723249 </v>
  </varray>
  <varray name="stress" >
   <v>     -14.91429541       0.00000000       0.00000000 </v>
   <v>       0.00000000     -14.91429541       0.00000000 </v>
   <v>       0.00000000       0.00000000     -13.10510901 </v>
  </varray>
  <energy>
   <i name="e_fr_energy">    -22.95957213 </i>
   <i name="e_wo_entrp">    -22.95957213 </i>
   <i name="e_0_energy">      0.00000000 </i>
  </energy>
  <time name="totalsc">    6.69    6.78</time>
  <eigenvalues>
   <array>
    <dimension dim="1">band</dimension>
    <dimension dim="2">kpoint</dimension>
    <dimension dim="3">spin</dimension>
    <field>eigene</field>
    <field>occ</field>
    <set>
     <set comment="spin 1">
      <set comment="kpoint 1">
       <r>  -28.7852    1.0000 </r>
       <r>  -27.7719    1.0000 </r>
       <r>  -13.3884    1.0000 </r>
       <r>  -12.2214    1.0000 </r>
       <r>  -12.2214    1.0000 </r>
       <r>  -12.1774    1.0000 </r>
       <r>   -8.6451    1.0000 </r>
       <r>   -8.6451    1.0000 </r>
       <r>   -0.8707    0.0000 </r>
       <r>   -0.1422    0.0000 </r>
       <r>   -0.1422    0.0000 </r>
       <r>    1.3195    0.0000 </r>
      </set>
     </set>
    </set>
   </array>
  </eigenvalues>
  <separator name="orbital magnetization" >
   <v name="MAGDIPOLOUT">      0.00000000      0.00000000      0.00000000</v>
  </separator>
  <dos>
   <i name="efermi">     -7.70588941 </i>
   <total>
    <array>
     <dimension dim="1">gridpoints</dimension>
     <dimension dim="2">spin</dimension>
     <field>energy</field>
     <field>total</field>
     <field>integrated</field>
     <set>
      <set comment="spin 1">
       <r>   -30.7852     0.0000     0.0000 </r>
       <r>   -30.6715     0.0000     0.0000 </r>
       <r>   -30.5578     0.0000     0.0000 </r>
       <r>   -30.4441     0.0000     0.0000 </r>
       <r>   -30.3304     0.0000     0.0000 </r>
       <r>   -30.2168     0.0000     0.0000 </r>
       <r>   -30.1031     0.0000     0.0000 </r>
       <r>   -29.9894     0.0000     0.0000 </r>
       <r>   -29.8757     0.0000     0.0000 </r>
       <r>   -29.7620     0.0000     0.0000 </r>
       <r>   -29.6484     0.0000     0.0000 </r>
       <r>   -29.5347     0.0000     0.0000 </r>
       <r>   -29.4210     0.0001     0.0000 </r>
       <r>   -29.3073     0.0019     0.0002 </r>
       <r>   -29.1936     0.0321     0.0039 </r>
       <r>   -29.0799     0.2925     0.0371 </r>
       <r>   -28.9663     1.4361     0.2004 </r>
       <r>   -28.8526     3.8112     0.6337 </r>
       <r>   -28.7389     5.4791     1.2565 </r>
       <r>   -28.6252     4.2704     1.7420 </r>
       <r>   -28.5115     1.8034     1.9470 </r>
       <r>   -28.3978     0.4120     1.9938 </r>
       <r>   -28.2842     0.0532     1.9999 </r>
       <r>   -28.1705     0.0432     2.0048 </r>
       <r>   -28.0568     0.3440     2.0439 </r>
       <r>   -27.9431     1.6007     2.2259 </r>
       <r>   -27.8294     4.0287     2.6839 </r>
       <r>   -27.7158     5.4935     3.3084 </r>
       <r>   -27.6021     4.0611     3.7701 </r>
       <r>   -27.4884     1.6265     3.9550 </r>
       <r>   -27.3747     0.3523     3.9950 </r>
       <r>   -27.2610     0.0411     3.9997 </r>
       <r>   -27.1473     0.0026     4.0000 </r>
       <r>   -27.0337     0.0001     4.0000 </r>
       <r>   -26.9200     0.0000     4.0000 </r>
       <r>   -26.8063     0.0000     4.0000 </r>
       <r>   -26.6926     0.0000     4.0000 </r>
       <r>   -26.5789     0.0000     4.0000 </r>
       <r>   -26.4652     0.0000     4.0000 </r>
       <r>   -26.3516     0.0000     4.0000 </r>
       <r>   -26.2379     0.0000     4.0000 </r>
       <r>   -26.1242     0.0000     4.0000 </r>
       <r>   -26.0105     0.0000     4.0000 </r>
       <r>   -25.8968     0.0000     4.0000 </r>
       <r>   -25.7832     0.0000     4.0000 </r>
       <r>   -25.6695     0.0000     4.0000 </r>
       <r>   -25.5558     0.0000     4.0000 </r>
       <r>   -25.4421     0.0000     4.0000 </r>
       <r>   -25.3284     0.0000     4.0000 </r>
       <r>   -25.2147     0.0000     4.0000 </r>
       <r>   -25.1011     0.0000     4.0000 </r>
       <r>   -24.9874     0.0000     4.0000 </r>
       <r>   -24.8737     0.0000     4.0000 </r>
       <r>   -24.7600     0.0000     4.0000 </r>
       <r>   -24.6463     0.0000     4.0000 </r>
       <r>   -24.5326     0.0000     4.0000 </r>
       <r>   -24.4190     0.0000     4.0000 </r>
       <r>   -24.3053     0.0000     4.0000 </r>
       <r>   -24.1916     0.0000     4.0000 </r>
       <r>   -24.0779     0.0000     4.0000 </r>
       <r>   -23.9642     0.0000     4.0000 </r>
       <r>   -23.8506     0.0000     4.0000 </r>
       <r>   -23.7369     0.0000     4.0000 </r>
       <r>   -23.6232     0.0000     4.0000 </r>
       <r>   -23.5095     0.0000     4.0000 </r>
       <r>   -23.3958     0.0000     4.0000 </r>
       <r>   -23.2821     0.0000     4.0000 </r>
       <r>   -23.1685     0.0000     4.0000 </r>
       <r>   -23.0548     0.0000     4.0000 </r>
       <r>   -22.9411     0.0000     4.0000 </r>
       <r>   -22.8274     0.0000     4.0000 </r>
       <r>   -22.7137     0.0000     4.0000 </r>
       <r>   -22.6000     0.0000     4.0000 </r>
       <r>   -22.4864     0.0000     4.0000 </r>
       <r>   -22.3727     0.0000     4.0000 </r>
       <r>   -22.2590     0.0000     4.0000 </r>
       <r>   -22.1453     0.0000     4.0000 </r>
       <r>   -22.0316     0.0000     4.0000 </r>
       <r>   -21.9180     0.0000     4.0000 </r>
       <r>   -21.8043     0.0000     4.0000 </r>
       <r>   -21.6906     0.0000     4.0000 </r>
       <r>   -21.5769     0.0000     4.0000 </r>
       <r>   -21.4632     0.0000     4.0000 </r>
       <r>   -21.3495     0.0000     4.0000 </r>
       <r>   -21.2359     0.0000     4.0000 </r>
       <r>   -21.1222     0.0000     4.0000 </r>
       <r>   -21.0085     0.0000     4.0000 </r>
       <r>   -20.8948     0.0000     4.0000 </r>
       <r>   -20.7811     0.0000     4.0000 </r>
       <r>   -20.6674     0.0000     4.0000 </r>
       <r>   -20.5538     0.0000     4.0000 </r>
       <r>   -20.4401     0.0000     4.0000 </r>
       <r>   -20.3264     0.0000     4.0000 </r>
       <r>   -20.2127     0.0000     4.0000 </r>
       <r>   -20.0990     0.0000     4.0000 </r>
       <r>   -19.9854     0.0000     4.0000 </r>
       <r>   -19.8717     0.0000     4.0000 </r>
       <r>   -19.7580     0.0000     4.0000 </r>
       <r>   -19.6443     0.0000     4.0000 </r>
       <r>   -19.5306     0.0000     4.0000 </r>
       <r>   -19.4169     0.0000     4.0000 </r>
       <r>   -19.3033     0.0000     4.0000 </r>
       <r>   -19.1896     0.0000     4.0000 </r>
       <r>   -19.0759     0.0000     4.0000 </r>
       <r>   -18.9622     0.0000     4.0000 </r>
       <r>   -18.8485     0.0000     4.0000 </r>
       <r>   -18.7348     0.0000     4.0000 </r>
       <r>   -18.6212     0.0000     4.0000 </r>
       <r>   -18.5075     0.0000     4.0000 </r>
       <r>   -18.3938     0.0000     4.0000 </r>
       <r>   -18.2801     0.0000     4.0000 </r>
       <r>   -18.1664     0.0000     4.0000 </r>
       <r>   -18.0528     0.0000     4.0000 </r>
       <r>   -17.9391     0.0000     4.0000 </r>
       <r>   -17.8254     0.0000     4.0000 </r>
       <r>   -17.7117     0.0000     4.0000 </r>
       <r>   -17.5980     0.0000     4.0000 </r>
       <r>   -17.4843     0.0000     4.0000 </r>
       <r>   -17.3707     0.0000     4.0000 </r>
       <r>   -17.2570     0.0000     4.0000 </r>
       <r>   -17.1433     0.0000     4.0000 </r>
       <r>   -17.0296     0.0000     4.0000 </r>
       <r>   -16.9159     0.0000     4.0000 </r>
       <r>   -16.8023     0.0000     4.0000 </r>
       <r>   -16.6886     0.0000     4.0000 </r>
       <r>   -16.5749     0.0000     4.0000 </r>
       <r>   -16.4612     0.0000     4.0000 </r>
       <r>   -16.3475     0.0000     4.0000 </r>
       <r>   -16.2338     0.0000     4.0000 </r>
       <r>   -16.1202     0.0000     4.0000 </r>
       <r>   -16.0065     0.0000     4.0000 </r>
       <r>   -15.8928     0.0000     4.0000 </r>
       <r>   -15.7791     0.0000     4.0000 </r>
       <r>   -15.6654     0.0000     4.0000 </r>
       <r>   -15.5517     0.0000     4.0000 </r>
       <r>   -15.4381     0.0000     4.0000 </r>
       <r>   -15.3244     0.0000     4.0000 </r>
       <r>   -15.2107     0.0000     4.0000 </r>
       <r>   -15.0970     0.0000     4.0000 </r>
       <r>   -14.9833     0.0000     4.0000 </r>
       <r>   -14.8697     0.0000     4.0000 </r>
       <r>   -14.7560     0.0000     4.0000 </r>
       <r>   -14.6423     0.0000     4.0000 </r>
       <r>   -14.5286     0.0000     4.0000 </r>
       <r>   -14.4149     0.0000     4.0000 </r>
       <r>   -14.3012     0.0000     4.0000 </r>
       <r>   -14.1876     0.0000     4.0000 </r>
       <r>   -14.0739     0.0000     4.0000 </r>
       <r>   -13.9602     0.0005     4.0001 </r>
       <r>   -13.8465     0.0101     4.0012 </r>
       <r>   -13.7328     0.1203     4.0149 </r>
       <r>   -13.6191     0.7732     4.1028 </r>
       <r>   -13.5055     2.6836     4.4079 </r>
       <r>   -13.3918     5.0416     4.9810 </r>
       <r>   -13.2781     5.1339     5.5646 </r>
       <r>   -13.1644     2.8338     5.8868 </r>
       <r>   -13.0507     0.8468     5.9830 </r>
       <r>   -12.9371     0.1367     5.9986 </r>
       <r>   -12.8234     0.0123     6.0000 </r>
       <r>   -12.7097     0.0114     6.0013 </r>
       <r>   -12.5960     0.1580     6.0192 </r>
       <r>   -12.4823     1.2488     6.1612 </r>
       <r>   -12.3686     5.3737     6.7721 </r>
       <r>   -12.2550    12.6363     8.2086 </r>
       <r>   -12.1413    16.2849    10.0599 </r>
       <r>   -12.0276    11.5203    11.3696 </r>
       <r>   -11.9139     4.4743    11.8782 </r>
       <r>   -11.8002     0.9528    11.9866 </r>
       <r>   -11.6865     0.1110    11.9992 </r>
       <r>   -11.5729     0.0070    12.0000 </r>
       <r>   -11.4592     0.0002    12.0000 </r>
       <r>   -11.3455     0.0000    12.0000 </r>
       <r>   -11.2318     0.0000    12.0000 </r>
       <r>   -11.1181     0.0000    12.0000 </r>
       <r>   -11.0045     0.0000    12.0000 </r>
       <r>   -10.8908     0.0000    12.0000 </r>
       <r>   -10.7771     0.0000    12.0000 </r>
       <r>   -10.6634     0.0000    12.0000 </r>
       <r>   -10.5497     0.0000    12.0000 </r>
       <r>   -10.4360     0.0000    12.0000 </r>
       <r>   -10.3224     0.0000    12.0000 </r>
       <r>   -10.2087     0.0000    12.0000 </r>
       <r>   -10.0950     0.0000    12.0000 </r>
       <r>    -9.9813     0.0000    12.0000 </r>
       <r>    -9.8676     0.0000    12.0000 </r>
       <r>    -9.7539     0.0000    12.0000 </r>
       <r>    -9.6403     0.0000    12.0000 </r>
       <r>    -9.5266     0.0000    12.0000 </r>
       <r>    -9.4129     0.0000    12.0000 </r>
       <r>    -9.2992     0.0001    12.0000 </r>
       <r>    -9.1855     0.0023    12.0003 </r>
       <r>    -9.0719     0.0425    12.0051 </r>
       <r>    -8.9582     0.4277    12.0537 </r>
       <r>    -8.8445     2.3184    12.3173 </r>
       <r>    -8.7308     6.7909    13.0893 </r>
       <r>    -8.6171    10.7730    14.3140 </r>
       <r>    -8.5034     9.2647    15.3672 </r>
       <r>    -8.3898     4.3179    15.8581 </r>
       <r>    -8.2761     1.0888    15.9819 </r>
       <r>    -8.1624     0.1482    15.9987 </r>
       <r>    -8.0487     0.0108    16.0000 </r>
       <r>    -7.9350     0.0004    16.0000 </r>
       <r>    -7.8213     0.0000    16.0000 </r>
       <r>    -7.7077     0.0000    16.0000 </r>
       <r>    -7.5940     0.0000    16.0000 </r>
       <r>    -7.4803     0.0000    16.0000 </r>
       <r>    -7.3666     0.0000    16.0000 </r>
       <r>    -7.2529     0.0000    16.0000 </r>
       <r>    -7.1393     0.0000    16.0000 </r>
       <r>    -7.0256     0.0000    16.0000 </r>
       <r>    -6.9119     0.0000    16.0000 </r>
       <r>    -6.7982     0.0000    16.0000 </r>
       <r>    -6.6845     0.0000    16.0000 </r>
       <r>    -6.5708     0.0000    16.0000 </r>
       <r>    -6.4572     0.0000    16.0000 </r>
       <r>    -6.3435     0.0000    16.0000 </r>
       <r>    -6.2298     0.0000    16.0000 </r>
       <r>    -6.1161     0.0000    16.0000 </r>
       <r>    -6.0024     0.0000    16.0000 </r>
       <r>    -5.8887     0.0000    16.0000 </r>
       <r>    -5.7751     0.0000    16.0000 </r>
       <r>    -5.6614     0.0000    16.0000 </r>
       <r>    -5.5477     0.0000    16.0000 </r>
       <r>    -5.4340     0.0000    16.0000 </r>
       <r>    -5.3203     0.0000    16.0000 </r>
       <r>    -5.2067     0.0000    16.0000 </r>
       <r>    -5.0930     0.0000    16.0000 </r>
       <r>    -4.9793     0.0000    16.0000 </r>
       <r>    -4.8656     0.0000    16.0000 </r>
       <r>    -4.7519     0.0000    16.0000 </r>
       <r>    -4.6382     0.0000    16.0000 </r>
       <r>    -4.5246     0.0000    16.0000 </r>
       <r>    -4.4109     0.0000    16.0000 </r>
       <r>    -4.2972     0.0000    16.0000 </r>
       <r>    -4.1835     0.0000    16.0000 </r>
       <r>    -4.0698     0.0000    16.0000 </r>
       <r>    -3.9561     0.0000    16.0000 </r>
       <r>    -3.8425     0.0000    16.0000 </r>
       <r>    -3.7288     0.0000    16.0000 </r>
       <r>    -3.6151     0.0000    16.0000 </r>
       <r>    -3.5014     0.0000    16.0000 </r>
       <r>    -3.3877     0.0000    16.0000 </r>
       <r>    -3.2741     0.0000    16.0000 </r>
       <r>    -3.1604     0.0000    16.0000 </r>
       <r>    -3.0467     0.0000    16.0000 </r>
       <r>    -2.9330     0.0000    16.0000 </r>
       <r>    -2.8193     0.0000    16.0000 </r>
       <r>    -2.7056     0.0000    16.0000 </r>
       <r>    -2.5920     0.0000    16.0000 </r>
       <r>    -2.4783     0.0000    16.0000 </r>
       <r>    -2.3646     0.0000    16.0000 </r>
       <r>    -2.2509     0.0000    16.0000 </r>
       <r>    -2.1372     0.0000    16.0000 </r>
       <r>    -2.0236     0.0000    16.0000 </r>
       <r>    -1.9099     0.0000    16.0000 </r>
       <r>    -1.7962     0.0000    16.0000 </r>
       <r>    -1.6825     0.0000    16.0000 </r>
       <r>    -1.5688     0.0000    16.0000 </r>
       <r>    -1.4551     0.0003    16.0000 </r>
       <r>    -1.3415     0.0074    16.0009 </r>
       <r>    -1.2278     0.0942    16.0116 </r>
       <r>    -1.1141     0.6482    16.0853 </r>
       <r>    -1.0004     2.4089    16.3591 </r>
       <r>    -0.8867     4.8448    16.9099 </r>
       <r>    -0.7730     5.2810    17.5102 </r>
       <r>    -0.6594     3.1247    17.8655 </r>
       <r>    -0.5457     1.0701    17.9871 </r>
       <r>    -0.4320     0.8078    18.0790 </r>
       <r>    -0.3183     3.0518    18.4259 </r>
       <r>    -0.2046     7.8444    19.3177 </r>
       <r>    -0.0910    10.9791    20.5658 </r>
       <r>     0.0227     8.3314    21.5129 </r>
       <r>     0.1364     3.4255    21.9023 </r>
       <r>     0.2501     0.7617    21.9889 </r>
       <r>     0.3638     0.0913    21.9993 </r>
       <r>     0.4775     0.0059    22.0000 </r>
       <r>     0.5911     0.0002    22.0000 </r>
       <r>     0.7048     0.0001    22.0000 </r>
       <r>     0.8185     0.0034    22.0004 </r>
       <r>     0.9322     0.0508    22.0062 </r>
       <r>     1.0459     0.4119    22.0530 </r>
       <r>     1.1596     1.8034    22.2580 </r>
       <r>     1.2732     4.2704    22.7435 </r>
       <r>     1.3869     5.4791    23.3663 </r>
       <r>     1.5006     3.8112    23.7996 </r>
       <r>     1.6143     1.4361    23.9629 </r>
       <r>     1.7280     0.2925    23.9961 </r>
       <r>     1.8416     0.0321    23.9998 </r>
       <r>     1.9553     0.0019    24.0000 </r>
       <r>     2.0690     0.0001    24.0000 </r>
       <r>     2.1827     0.0000    24.0000 </r>
       <r>     2.2964     0.0000    24.0000 </r>
       <r>     2.4101     0.0000    24.0000 </r>
       <r>     2.5237     0.0000    24.0000 </r>
       <r>     2.6374     0.0000    24.0000 </r>
       <r>     2.7511     0.0000    24.0000 </r>
       <r>     2.8648     0.0000    24.0000 </r>
       <r>     2.9785     0.0000    24.0000 </r>
       <r>     3.0922     0.0000    24.0000 </r>
       <r>     3.2058     0.0000    24.0000 </r>
       <r>     3.3195     0.0000    24.0000 </r>
      </set>
     </set>
    </array>
   </total>
  </dos>
 </calculation>
 <structure name="finalpos" >
  <crystal>
   <varray name="basis" >
    <v>       8.00000000       0.00000000       0.00000000 </v>
    <v>       0.00000000       8.00000000       0.00000000 </v>
    <v>       0.00000000       0.00000000       8.00000000 </v>
   </varray>
   <i name="volume">    512.00000000 </i>
   <varray name="rec_basis" >
    <v>       0.12500000       0.00000000       0.00000000 </v>
    <v>       0.00000000       0.12500000       0.00000000 </v>
    <v>       0.00000000       0.00000000       0.12500000 </v>
   </varray>
  </crystal>
  <varray name="positions" >
   <v>       0.50000000       0.50000000       0.50000000 </v>
   <v>       0.50000000       0.50000000       0.64711157 </v>
   <v>       0.50000000       0.50000000       0.35288843 </v>
  </varray>
 </structure>
</modeling>
