  12  12   0   0
  0.1800000E+02  0.6000000E-09  0.6000000E-09  0.6000000E-09  0.5000000E-15
  1.000000000000000E-004
  CAR 
 unknown system                          
      9.04919893    -21.04143738  301     -3.63265568      1.00000000
    -21.041  0.0000E+00  0.0000E+00  0.0000E+00  0.0000E+00
    -20.941  0.0000E+00  0.0000E+00  0.0000E+00  0.0000E+00
    -20.841  0.0000E+00  0.0000E+00  0.0000E+00  0.0000E+00
    -20.741  0.0000E+00 -0.5406E-31  0.0000E+00 -0.5423E-32
    -20.640 -0.2168E-28 -0.1985E-27 -0.2174E-29 -0.1992E-28
    -20.540 -0.5514E-25 -0.4391E-24 -0.5533E-26 -0.4407E-25
    -20.440 -0.8447E-22 -0.5847E-21 -0.8478E-23 -0.5869E-22
    -20.339 -0.7784E-19 -0.4682E-18 -0.7816E-20 -0.4702E-19
    -20.239 -0.4311E-16 -0.2253E-15 -0.4332E-17 -0.2264E-16
    -20.139 -0.1389E-13 -0.6293E-13 -0.1398E-14 -0.6334E-14
    -20.038 -0.2750E-11 -0.1081E-10 -0.2773E-12 -0.1091E-11
    -19.938 -0.3250E-09 -0.1107E-08 -0.3288E-10 -0.1121E-09
    -19.838 -0.2282E-07 -0.6725E-07 -0.2321E-08 -0.6857E-08
    -19.738 -0.9452E-06 -0.2404E-05 -0.9713E-07 -0.2480E-06
    -19.637 -0.2284E-04 -0.4990E-04 -0.2388E-05 -0.5253E-05
    -19.537 -0.3151E-03 -0.5860E-03 -0.3399E-04 -0.6403E-04
    -19.437 -0.2369E-02 -0.3667E-02 -0.2716E-03 -0.4319E-03
    -19.336 -0.8497E-02 -0.1004E-01 -0.1124E-02 -0.1439E-02
    -19.236 -0.5321E-02  0.3345E-02 -0.1658E-02 -0.1104E-02
    -19.136  0.5425E-01  0.8382E-01  0.3784E-02  0.7304E-02
    -19.035  0.1662E+00  0.1892E+00  0.2045E-01  0.2628E-01
    -18.935  0.1979E+00  0.1802E+00  0.4030E-01  0.4435E-01
    -18.835  0.1019E+00  0.7040E-01  0.5052E-01  0.5141E-01
    -18.734  0.1068E-01 -0.1078E-02  0.5160E-01  0.5130E-01
    -18.634 -0.1044E-01 -0.9462E-02  0.5055E-01  0.5035E-01
    -18.534 -0.4571E-02 -0.3052E-02  0.5009E-01  0.5005E-01
    -18.434 -0.8141E-03 -0.4495E-03  0.5001E-01  0.5000E-01
    -18.333 -0.7605E-04 -0.3566E-04  0.5000E-01  0.5000E-01
    -18.233 -0.3995E-05 -0.1608E-05  0.5000E-01  0.5000E-01
    -18.133 -0.1215E-06 -0.4216E-07  0.5000E-01  0.5000E-01
    -18.032 -0.2170E-08 -0.6515E-09  0.5000E-01  0.5000E-01
    -17.932 -0.2297E-10 -0.5976E-11  0.5000E-01  0.5000E-01
    -17.832 -0.1449E-12 -0.3265E-13  0.5000E-01  0.5000E-01
    -17.731 -0.5534E-15 -0.1107E-15  0.5000E-01  0.5000E-01
    -17.631 -0.3803E-28 -0.1539E-27  0.5000E-01  0.5000E-01
    -17.531 -0.9349E-25 -0.3476E-24  0.5000E-01  0.5000E-01
    -17.431 -0.1385E-21 -0.4733E-21  0.5000E-01  0.5000E-01
    -17.330 -0.1234E-18 -0.3882E-18  0.5000E-01  0.5000E-01
    -17.230 -0.6620E-16 -0.1918E-15  0.5000E-01  0.5000E-01
    -17.130 -0.2068E-13 -0.5515E-13  0.5000E-01  0.5000E-01
    -17.029 -0.3976E-11 -0.9789E-11  0.5000E-01  0.5000E-01
    -16.929 -0.4577E-09 -0.1041E-08  0.5000E-01  0.5000E-01
    -16.829 -0.3143E-07 -0.6605E-07  0.5000E-01  0.5000E-01
    -16.728 -0.1282E-05 -0.2487E-05  0.5000E-01  0.5000E-01
    -16.628 -0.3076E-04 -0.5502E-04  0.5000E-01  0.4999E-01
    -16.528 -0.4273E-03 -0.7003E-03  0.4995E-01  0.4992E-01
    -16.428 -0.3313E-02 -0.4895E-02  0.4962E-01  0.4943E-01
    -16.327 -0.1291E-01 -0.1633E-01  0.4833E-01  0.4780E-01
    -16.227 -0.1385E-01 -0.7588E-02  0.4694E-01  0.4703E-01
    -16.127  0.6684E-01  0.1086E+00  0.5364E-01  0.5793E-01
    -16.026  0.2625E+00  0.3215E+00  0.7997E-01  0.9017E-01
    -15.926  0.3869E+00  0.3872E+00  0.1188E+00  0.1290E+00
    -15.826  0.2696E+00  0.2104E+00  0.1458E+00  0.1501E+00
    -15.725  0.7202E-01  0.2980E-01  0.1530E+00  0.1531E+00
    -15.625 -0.1299E-01 -0.1911E-01  0.1517E+00  0.1512E+00
    -15.525 -0.1332E-01 -0.9752E-02  0.1504E+00  0.1502E+00
    -15.425 -0.3515E-02 -0.1931E-02  0.1501E+00  0.1500E+00
    -15.324 -0.4631E-03 -0.2007E-03  0.1500E+00  0.1500E+00
    -15.224 -0.3398E-04 -0.1179E-04  0.1500E+00  0.1500E+00
    -15.124 -0.1442E-05 -0.4036E-06  0.1500E+00  0.1500E+00
    -15.023 -0.3601E-07 -0.8166E-08  0.1500E+00  0.1500E+00
    -14.923 -0.5338E-09 -0.9838E-10  0.1500E+00  0.1500E+00
    -14.823 -0.4720E-11 -0.7090E-12  0.1500E+00  0.1500E+00
    -14.722 -0.2490E-13 -0.2989E-14  0.1500E+00  0.1500E+00
    -14.622 -0.1107E-15 -0.1282E-25  0.1500E+00  0.1500E+00
    -14.522 -0.5832E-23 -0.2163E-22  0.1500E+00  0.1500E+00
    -14.421 -0.6495E-20 -0.2197E-19  0.1500E+00  0.1500E+00
    -14.321 -0.4349E-17 -0.1341E-16  0.1500E+00  0.1500E+00
    -14.221 -0.1694E-14 -0.4778E-14  0.1500E+00  0.1500E+00
    -14.121 -0.4072E-12 -0.1042E-11  0.1500E+00  0.1500E+00
    -14.020 -0.5835E-10 -0.1359E-09  0.1500E+00  0.1500E+00
    -13.920 -0.4977E-08 -0.1054E-07  0.1500E+00  0.1500E+00
    -13.820 -0.2512E-06 -0.4835E-06  0.1500E+00  0.1500E+00
    -13.719 -0.7434E-05 -0.1297E-04  0.1500E+00  0.1500E+00
    -13.619 -0.1268E-03 -0.1996E-03  0.1500E+00  0.1500E+00
    -13.519 -0.1205E-02 -0.1695E-02  0.1499E+00  0.1498E+00
    -13.418 -0.5862E-02 -0.7152E-02  0.1493E+00  0.1491E+00
    -13.318 -0.1010E-01 -0.8591E-02  0.1483E+00  0.1482E+00
    -13.218  0.2271E-01  0.3670E-01  0.1505E+00  0.1519E+00
    -13.118  0.1252E+00  0.1461E+00  0.1631E+00  0.1666E+00
    -13.017  0.2037E+00  0.2036E+00  0.1835E+00  0.1870E+00
    -12.917  0.1448E+00  0.1235E+00  0.1981E+00  0.1994E+00
    -12.817  0.3204E-01  0.1694E-01  0.2013E+00  0.2011E+00
    -12.716 -0.1901E-01 -0.2046E-01  0.1994E+00  0.1990E+00
    -12.616  0.8561E-03  0.1262E-01  0.1994E+00  0.2003E+00
    -12.516  0.9403E-01  0.1165E+00  0.2089E+00  0.2120E+00
    -12.415  0.1951E+00  0.2024E+00  0.2284E+00  0.2323E+00
    -12.315  0.1712E+00  0.1525E+00  0.2456E+00  0.2476E+00
    -12.215  0.5956E-01  0.4180E-01  0.2516E+00  0.2518E+00
    -12.115 -0.4057E-02 -0.7793E-02  0.2512E+00  0.2510E+00
    -12.014 -0.8910E-02 -0.7651E-02  0.2503E+00  0.2502E+00
    -11.914 -0.3313E-02 -0.2705E-02  0.2500E+00  0.2499E+00
    -11.814 -0.4596E-02 -0.4825E-02  0.2495E+00  0.2495E+00
    -11.713 -0.1038E-01 -0.1046E-01  0.2485E+00  0.2484E+00
    -11.613  0.7883E-02  0.1088E-01  0.2492E+00  0.2495E+00
    -11.513  0.9550E-01  0.1024E+00  0.2588E+00  0.2598E+00
    -11.412  0.1952E+00  0.1981E+00  0.2784E+00  0.2796E+00
    -11.312  0.1714E+00  0.1658E+00  0.2956E+00  0.2963E+00
    -11.212  0.5975E-01  0.5387E-01  0.3016E+00  0.3017E+00
    -11.112 -0.4007E-02 -0.5407E-02  0.3012E+00  0.3011E+00
    -11.011 -0.8856E-02 -0.8471E-02  0.3003E+00  0.3003E+00
    -10.911 -0.2595E-02 -0.2354E-02  0.3000E+00  0.3000E+00
    -10.811 -0.3575E-03 -0.3122E-03  0.3000E+00  0.3000E+00
    -10.710 -0.2675E-04 -0.2258E-04  0.3000E+00  0.3000E+00
    -10.610 -0.1141E-05 -0.9327E-06  0.3000E+00  0.3000E+00
    -10.510 -0.2835E-07 -0.2247E-07  0.3000E+00  0.3000E+00
    -10.409 -0.4155E-09 -0.3194E-09  0.3000E+00  0.3000E+00
    -10.309 -0.5339E-11 -0.5709E-11  0.3000E+00  0.3000E+00
    -10.209 -0.2136E-09 -0.3526E-09  0.3000E+00  0.3000E+00
    -10.109 -0.1574E-07 -0.2452E-07  0.3000E+00  0.3000E+00
    -10.008 -0.6848E-06 -0.1006E-05  0.3000E+00  0.3000E+00
     -9.908 -0.1740E-04 -0.2407E-04  0.3000E+00  0.3000E+00
     -9.808 -0.2532E-03 -0.3286E-03  0.3000E+00  0.3000E+00
     -9.707 -0.2021E-02 -0.2442E-02  0.2998E+00  0.2997E+00
     -9.607 -0.7857E-02 -0.8618E-02  0.2990E+00  0.2989E+00
     -9.507 -0.7148E-02 -0.4907E-02  0.2983E+00  0.2984E+00
     -9.406  0.4540E-01  0.5605E-01  0.3028E+00  0.3040E+00
     -9.306  0.1568E+00  0.1679E+00  0.3185E+00  0.3208E+00
     -9.206  0.2014E+00  0.1971E+00  0.3387E+00  0.3406E+00
     -9.105  0.1129E+00  0.9977E-01  0.3501E+00  0.3506E+00
     -9.005  0.1571E-01  0.9390E-02  0.3516E+00  0.3515E+00
     -8.905 -0.1244E-01 -0.1290E-01  0.3504E+00  0.3502E+00
     -8.805 -0.1302E-01 -0.1314E-01  0.3491E+00  0.3489E+00
     -8.704 -0.8123E-02 -0.5480E-02  0.3483E+00  0.3484E+00
     -8.604  0.4535E-01  0.5686E-01  0.3528E+00  0.3541E+00
     -8.504  0.1568E+00  0.1688E+00  0.3686E+00  0.3710E+00
     -8.403  0.2014E+00  0.1966E+00  0.3888E+00  0.3907E+00
     -8.303  0.1129E+00  0.9875E-01  0.4001E+00  0.4006E+00
     -8.203  0.1593E-01  0.9269E-02  0.4017E+00  0.4016E+00
     -8.102 -0.1043E-01 -0.1042E-01  0.4006E+00  0.4005E+00
     -8.002 -0.5329E-02 -0.4597E-02  0.4001E+00  0.4001E+00
     -7.902 -0.2481E-02 -0.2411E-02  0.3998E+00  0.3998E+00
     -7.802 -0.6770E-02 -0.7095E-02  0.3992E+00  0.3991E+00
     -7.701 -0.9309E-02 -0.8805E-02  0.3982E+00  0.3982E+00
     -7.601  0.3124E-01  0.3520E-01  0.4014E+00  0.4018E+00
     -7.501  0.1385E+00  0.1441E+00  0.4153E+00  0.4162E+00
     -7.400  0.2043E+00  0.2038E+00  0.4358E+00  0.4367E+00
     -7.300  0.1322E+00  0.1259E+00  0.4490E+00  0.4493E+00
     -7.200  0.2549E-01  0.1898E-01  0.4516E+00  0.4512E+00
     -7.099 -0.1730E-01 -0.2115E-01  0.4498E+00  0.4491E+00
     -6.999 -0.1890E-01  0.6310E-03  0.4479E+00  0.4491E+00
     -6.899  0.2237E-01  0.8926E-01  0.4502E+00  0.4581E+00
     -6.799  0.1414E+00  0.1976E+00  0.4644E+00  0.4779E+00
     -6.698  0.2768E+00  0.2465E+00  0.4921E+00  0.5026E+00
     -6.598  0.3305E+00  0.2709E+00  0.5253E+00  0.5298E+00
     -6.498  0.3141E+00  0.2973E+00  0.5568E+00  0.5596E+00
     -6.397  0.2614E+00  0.2598E+00  0.5830E+00  0.5857E+00
     -6.297  0.1529E+00  0.1383E+00  0.5983E+00  0.5996E+00
     -6.197  0.3735E-01  0.2534E-01  0.6021E+00  0.6021E+00
     -6.096 -0.9840E-02 -0.1167E-01  0.6011E+00  0.6009E+00
     -5.996 -0.8549E-02 -0.7418E-02  0.6002E+00  0.6002E+00
     -5.896 -0.2518E-02 -0.2093E-02  0.6000E+00  0.6000E+00
     -5.796 -0.2861E-02 -0.3179E-02  0.5997E+00  0.5997E+00
     -5.695 -0.8865E-02 -0.9400E-02  0.5988E+00  0.5987E+00
     -5.595 -0.4048E-02 -0.1501E-02  0.5984E+00  0.5986E+00
     -5.495  0.5959E-01  0.6897E-01  0.6044E+00  0.6055E+00
     -5.394  0.1712E+00  0.1791E+00  0.6216E+00  0.6234E+00
     -5.294  0.1953E+00  0.1900E+00  0.6411E+00  0.6425E+00
     -5.194  0.9568E-01  0.8533E-01  0.6507E+00  0.6511E+00
     -5.093  0.7961E-02  0.3895E-02  0.6515E+00  0.6515E+00
     -4.993 -0.1036E-01 -0.1009E-01  0.6505E+00  0.6504E+00
     -4.893 -0.4250E-02 -0.3739E-02  0.6501E+00  0.6501E+00
     -4.792 -0.7290E-03 -0.6030E-03  0.6500E+00  0.6500E+00
     -4.692 -0.6598E-04 -0.5177E-04  0.6500E+00  0.6500E+00
     -4.592 -0.3475E-05 -0.3513E-05  0.6500E+00  0.6500E+00
     -4.492 -0.4013E-05 -0.2676E-04  0.6500E+00  0.6500E+00
     -4.391 -0.8116E-04 -0.4084E-03  0.6500E+00  0.6500E+00
     -4.291 -0.9628E-03 -0.3447E-02  0.6499E+00  0.6496E+00
     -4.191 -0.6193E-02 -0.1443E-01  0.6493E+00  0.6482E+00
     -4.090 -0.1818E-01 -0.1694E-01  0.6475E+00  0.6465E+00
     -3.990  0.1920E-03  0.7490E-01  0.6475E+00  0.6540E+00
     -3.890  0.1395E+00  0.2940E+00  0.6615E+00  0.6835E+00
     -3.789  0.3513E+00  0.4070E+00  0.6967E+00  0.7243E+00
     -3.689  0.3738E+00  0.2472E+00  0.7342E+00  0.7491E+00
     -3.589  0.1739E+00  0.4361E-01  0.7516E+00  0.7535E+00
     -3.489  0.1231E-01 -0.2030E-01  0.7529E+00  0.7514E+00
     -3.388 -0.1934E-01 -0.1154E-01  0.7509E+00  0.7503E+00
     -3.288 -0.7811E-02 -0.2351E-02  0.7501E+00  0.7500E+00
     -3.188 -0.1352E-02 -0.2456E-03  0.7500E+00  0.7500E+00
     -3.087 -0.1250E-03 -0.1430E-04  0.7500E+00  0.7500E+00
     -2.987 -0.6574E-05 -0.4804E-06  0.7500E+00  0.7500E+00
     -2.887 -0.2020E-06 -0.9464E-08  0.7500E+00  0.7500E+00
     -2.786 -0.3672E-08 -0.1104E-09  0.7500E+00  0.7500E+00
     -2.686 -0.3979E-10 -0.7661E-12  0.7500E+00  0.7500E+00
     -2.586 -0.2580E-12 -0.3321E-14  0.7500E+00  0.7500E+00
     -2.486 -0.1107E-14  0.0000E+00  0.7500E+00  0.7500E+00
     -2.385  0.0000E+00  0.0000E+00  0.7500E+00  0.7500E+00
     -2.285  0.0000E+00  0.0000E+00  0.7500E+00  0.7500E+00
     -2.185  0.0000E+00  0.0000E+00  0.7500E+00  0.7500E+00
     -2.084  0.0000E+00  0.0000E+00  0.7500E+00  0.7500E+00
     -1.984  0.0000E+00  0.0000E+00  0.7500E+00  0.7500E+00
     -1.884  0.0000E+00  0.0000E+00  0.7500E+00  0.7500E+00
     -1.783  0.0000E+00  0.0000E+00  0.7500E+00  0.7500E+00
     -1.683  0.0000E+00  0.0000E+00  0.7500E+00  0.7500E+00
     -1.583  0.0000E+00  0.0000E+00  0.7500E+00  0.7500E+00
     -1.483  0.0000E+00  0.0000E+00  0.7500E+00  0.7500E+00
     -1.382  0.0000E+00  0.0000E+00  0.7500E+00  0.7500E+00
     -1.282  0.0000E+00  0.0000E+00  0.7500E+00  0.7500E+00
     -1.182  0.0000E+00  0.0000E+00  0.7500E+00  0.7500E+00
     -1.081  0.0000E+00  0.0000E+00  0.7500E+00  0.7500E+00
     -0.981  0.0000E+00  0.0000E+00  0.7500E+00  0.7500E+00
     -0.881  0.0000E+00  0.0000E+00  0.7500E+00  0.7500E+00
     -0.780  0.0000E+00  0.0000E+00  0.7500E+00  0.7500E+00
     -0.680  0.0000E+00  0.0000E+00  0.7500E+00  0.7500E+00
     -0.580  0.0000E+00 -0.1546E-29  0.7500E+00  0.7500E+00
     -0.480 -0.1346E-28 -0.4631E-26  0.7500E+00  0.7500E+00
     -0.379 -0.3529E-25 -0.8358E-23  0.7500E+00  0.7500E+00
     -0.279 -0.5572E-22 -0.9076E-20  0.7500E+00  0.7500E+00
     -0.179 -0.5293E-19 -0.5926E-17  0.7500E+00  0.7500E+00
     -0.078 -0.3024E-16 -0.2269E-14  0.7500E+00  0.7500E+00
      0.022 -0.1005E-13 -0.5273E-12  0.7500E+00  0.7500E+00
      0.122 -0.2059E-11 -0.7366E-10  0.7500E+00  0.7500E+00
      0.223 -0.2520E-09 -0.6124E-08  0.7500E+00  0.7500E+00
      0.323 -0.1837E-07 -0.3013E-06  0.7500E+00  0.7500E+00
      0.423 -0.7946E-06 -0.8693E-05  0.7500E+00  0.7500E+00
      0.524 -0.2022E-04 -0.1448E-03  0.7500E+00  0.7500E+00
      0.624 -0.2981E-03 -0.1349E-02  0.7500E+00  0.7498E+00
      0.724 -0.2468E-02 -0.6528E-02  0.7497E+00  0.7492E+00
      0.824 -0.1052E-01 -0.1223E-01  0.7487E+00  0.7480E+00
      0.925 -0.1525E-01  0.1731E-01  0.7471E+00  0.7497E+00
      1.025  0.4226E-01  0.1227E+00  0.7514E+00  0.7620E+00
      1.125  0.2097E+00  0.2493E+00  0.7724E+00  0.7870E+00
      1.226  0.3577E+00  0.3049E+00  0.8083E+00  0.8176E+00
      1.326  0.3306E+00  0.2993E+00  0.8414E+00  0.8476E+00
      1.426  0.2424E+00  0.2718E+00  0.8658E+00  0.8749E+00
      1.527  0.2036E+00  0.1937E+00  0.8862E+00  0.8943E+00
      1.627  0.1275E+00  0.7306E-01  0.8990E+00  0.9016E+00
      1.727  0.2890E-01 -0.9461E-03  0.9019E+00  0.9015E+00
      1.827 -0.9804E-02 -0.1090E-01  0.9009E+00  0.9004E+00
      1.928 -0.7028E-02 -0.3805E-02  0.9002E+00  0.9001E+00
      2.028 -0.1678E-02 -0.6841E-03  0.9000E+00  0.9000E+00
      2.128 -0.9071E-03 -0.9031E-03  0.8999E+00  0.8999E+00
      2.229 -0.4230E-02 -0.4710E-02  0.8995E+00  0.8994E+00
      2.329 -0.1035E-01 -0.1045E-01  0.8985E+00  0.8984E+00
      2.429  0.7704E-02  0.1186E-01  0.8992E+00  0.8996E+00
      2.530  0.9506E-01  0.1045E+00  0.9088E+00  0.9101E+00
      2.630  0.1950E+00  0.1988E+00  0.9283E+00  0.9300E+00
      2.730  0.1717E+00  0.1640E+00  0.9456E+00  0.9465E+00
      2.830  0.6013E-01  0.5210E-01  0.9516E+00  0.9517E+00
      2.931 -0.3911E-02 -0.5797E-02  0.9512E+00  0.9511E+00
      3.031 -0.8880E-02 -0.8349E-02  0.9503E+00  0.9503E+00
      3.131 -0.2610E-02 -0.2283E-02  0.9500E+00  0.9500E+00
      3.232 -0.3606E-03 -0.2993E-03  0.9500E+00  0.9500E+00
      3.332 -0.2704E-04 -0.2143E-04  0.9500E+00  0.9500E+00
      3.432 -0.1155E-05 -0.8764E-06  0.9500E+00  0.9500E+00
      3.533 -0.3742E-07 -0.3336E-07  0.9500E+00  0.9500E+00
      3.633 -0.4076E-06 -0.5592E-06  0.9500E+00  0.9500E+00
      3.733 -0.1121E-04 -0.1466E-04  0.9500E+00  0.9500E+00
      3.833 -0.1773E-03 -0.2204E-03  0.9500E+00  0.9500E+00
      3.934 -0.1552E-02 -0.1825E-02  0.9498E+00  0.9498E+00
      4.034 -0.6809E-02 -0.7449E-02  0.9491E+00  0.9490E+00
      4.134 -0.9181E-02 -0.8117E-02  0.9482E+00  0.9482E+00
      4.235  0.3208E-01  0.3949E-01  0.9514E+00  0.9522E+00
      4.335  0.1368E+00  0.1464E+00  0.9652E+00  0.9669E+00
      4.435  0.1940E+00  0.1926E+00  0.9846E+00  0.9862E+00
      4.536  0.1354E+00  0.1274E+00  0.9982E+00  0.9990E+00
      4.636  0.1134E+00  0.1132E+00  0.1010E+01  0.1010E+01
      4.736  0.1749E+00  0.1750E+00  0.1027E+01  0.1028E+01
      4.837  0.1514E+00  0.1433E+00  0.1042E+01  0.1042E+01
      4.937  0.6635E-01  0.7663E-01  0.1049E+01  0.1050E+01
      5.037  0.1394E+00  0.2000E+00  0.1063E+01  0.1070E+01
      5.137  0.3742E+00  0.4336E+00  0.1100E+01  0.1113E+01
      5.238  0.5062E+00  0.4804E+00  0.1151E+01  0.1162E+01
      5.338  0.3756E+00  0.3044E+00  0.1189E+01  0.1192E+01
      5.438  0.1364E+00  0.1006E+00  0.1203E+01  0.1202E+01
      5.539  0.9432E-03 -0.1170E-02  0.1203E+01  0.1202E+01
      5.639 -0.1869E-01 -0.1517E-01  0.1201E+01  0.1201E+01
      5.739 -0.8658E-02 -0.7186E-02  0.1200E+01  0.1200E+01
      5.840 -0.8665E-02 -0.8086E-02  0.1199E+01  0.1199E+01
      5.940 -0.1187E-01 -0.1330E-01  0.1198E+01  0.1198E+01
      6.040  0.2579E-01  0.1917E-01  0.1200E+01  0.1200E+01
      6.140  0.1422E+00  0.1390E+00  0.1215E+01  0.1214E+01
      6.241  0.2719E+00  0.2885E+00  0.1242E+01  0.1243E+01
      6.341  0.3051E+00  0.3247E+00  0.1273E+01  0.1275E+01
      6.441  0.2142E+00  0.2089E+00  0.1294E+01  0.1296E+01
      6.542  0.7470E-01  0.5886E-01  0.1302E+01  0.1302E+01
      6.642 -0.1059E-01 -0.1693E-01  0.1301E+01  0.1300E+01
      6.742 -0.3092E-01 -0.3087E-01  0.1297E+01  0.1297E+01
      6.843  0.1774E-01  0.2104E-01  0.1299E+01  0.1299E+01
      6.943  0.1950E+00  0.2037E+00  0.1319E+01  0.1320E+01
      7.043  0.3839E+00  0.3902E+00  0.1357E+01  0.1359E+01
      7.143  0.3347E+00  0.3292E+00  0.1391E+01  0.1392E+01
      7.244  0.1201E+00  0.1112E+00  0.1403E+01  0.1403E+01
      7.344 -0.5310E-02 -0.8386E-02  0.1402E+01  0.1402E+01
      7.444 -0.1716E-01 -0.1681E-01  0.1401E+01  0.1401E+01
      7.545 -0.5346E-02 -0.4932E-02  0.1400E+01  0.1400E+01
      7.645 -0.7830E-03 -0.6887E-03  0.1400E+01  0.1400E+01
      7.745 -0.6266E-04 -0.5265E-04  0.1400E+01  0.1400E+01
      7.846 -0.2879E-05 -0.2310E-05  0.1400E+01  0.1400E+01
      7.946 -0.7756E-07 -0.5944E-07  0.1400E+01  0.1400E+01
      8.046 -0.1240E-08 -0.9069E-09  0.1400E+01  0.1400E+01
      8.146 -0.1182E-10 -0.8256E-11  0.1400E+01  0.1400E+01
      8.247 -0.6763E-13 -0.4505E-13  0.1400E+01  0.1400E+01
      8.347 -0.2214E-15 -0.1107E-15  0.1400E+01  0.1400E+01
      8.447  0.0000E+00  0.0000E+00  0.1400E+01  0.1400E+01
      8.548  0.0000E+00  0.0000E+00  0.1400E+01  0.1400E+01
      8.648  0.0000E+00  0.0000E+00  0.1400E+01  0.1400E+01
      8.748  0.0000E+00  0.0000E+00  0.1400E+01  0.1400E+01
      8.849  0.0000E+00  0.0000E+00  0.1400E+01  0.1400E+01
      8.949  0.0000E+00  0.0000E+00  0.1400E+01  0.1400E+01
      9.049  0.0000E+00  0.0000E+00  0.1400E+01  0.1400E+01
