   12   12   20    2
  0.1800000E+02  0.6000000E-09  0.6000000E-09  0.6000000E-09  0.5000000E-15
  1.000000000000000E-004
  CAR 
 unknown system                          
   30    1   28
 
  0.0000000E+00  0.0000000E+00  0.0000000E+00  0.1000000E+01
   1      -19.013755    -19.041437
   2      -16.011644    -16.029001
   3      -15.937273    -15.975441
   4      -13.058562    -13.076763
   5      -12.431800    -12.450368
   6      -11.428597    -11.434461
   7       -9.275164     -9.286261
   8       -8.472795     -8.484733
   9       -7.453156     -7.458055
  10       -6.755307     -6.820226
  11       -6.603483     -6.609714
  12       -6.425359     -6.440424
  13       -5.377986     -5.386937
  14       -3.804551     -3.852458
  15       -3.758433     -3.847200
  16        1.152869      1.079063
  17        1.246038      1.247022
  18        1.482861      1.433342
  19        2.614071      2.606029
  20        4.380627      4.371710
  21        4.725762      4.720171
  22        5.101852      5.100762
  23        5.184849      5.124800
  24        5.272277      5.267661
  25        6.183124      6.190516
  26        6.349335      6.334754
  27        7.001817      7.002296
  28        7.049199      7.040944
