       N       E                     dE             d eps       ncg     rms          rms(c)
DAV:   1     0.157165652306E+03    0.15717E+03   -0.10159E+04   112   0.616E+02
DAV:   2    -0.471483129065E+02   -0.20431E+03   -0.19220E+03   172   0.172E+02
DAV:   3    -0.678763780709E+02   -0.20728E+02   -0.20627E+02   152   0.611E+01
DAV:   4    -0.682859831513E+02   -0.40961E+00   -0.40935E+00   144   0.104E+01
DAV:   5    -0.682936797756E+02   -0.76966E-02   -0.76946E-02   156   0.130E+00    0.221E+01
DAV:   6    -0.686030149605E+02   -0.30934E+00   -0.37342E+01   120   0.252E+01    0.844E+00
DAV:   7    -0.741541990490E+02   -0.55512E+01   -0.12465E+01   132   0.130E+01    0.375E+00
DAV:   8    -0.740317280580E+02    0.12247E+00   -0.68354E-01   136   0.399E+00    0.183E+00
DAV:   9    -0.739962866758E+02    0.35441E-01   -0.17280E-01   136   0.222E+00    0.576E-01
DAV:  10    -0.740002035948E+02   -0.39169E-02   -0.22700E-02   120   0.887E-01    0.269E-01
DAV:  11    -0.740042920358E+02   -0.40884E-02   -0.48558E-03   120   0.426E-01    0.192E-01
DAV:  12    -0.740065727156E+02   -0.22807E-02   -0.20320E-03   120   0.272E-01    0.638E-02
DAV:  13    -0.740078608832E+02   -0.12882E-02   -0.40182E-04   120   0.124E-01    0.391E-02
DAV:  14    -0.740083317948E+02   -0.47091E-03   -0.16545E-04   112   0.759E-02    0.183E-02
DAV:  15    -0.740083921127E+02   -0.60318E-04   -0.38313E-05    88   0.388E-02
   1 F= -.74008392E+02 E0= -.74016867E+02  d E =-.740084E+02  mag=    -0.1235
       N       E                     dE             d eps       ncg     rms          rms(c)
DAV:   1    -0.737322300823E+02    0.27610E+00   -0.56340E+01   112   0.404E+01    0.177E+00
DAV:   2    -0.737571244148E+02   -0.24894E-01   -0.11926E+00   120   0.565E+00    0.126E+00
DAV:   3    -0.737301348646E+02    0.26990E-01   -0.15800E-01   124   0.203E+00    0.383E-01
DAV:   4    -0.737297033962E+02    0.43147E-03   -0.21101E-02   120   0.743E-01    0.257E-01
DAV:   5    -0.737295132977E+02    0.19010E-03   -0.32060E-03   112   0.317E-01    0.506E-02
DAV:   6    -0.737295039472E+02    0.93505E-05   -0.39615E-04   112   0.111E-01
   2 F= -.73729504E+02 E0= -.73733430E+02  d E =0.278888E+00  mag=    -0.0270
       N       E                     dE             d eps       ncg     rms          rms(c)
DAV:   1    -0.741818229101E+02   -0.45231E+00   -0.21952E+01   112   0.254E+01    0.114E+00
DAV:   2    -0.741838773412E+02   -0.20544E-02   -0.37996E-01   136   0.313E+00    0.736E-01
DAV:   3    -0.741749706795E+02    0.89067E-02   -0.68528E-02   132   0.131E+00    0.173E-01
DAV:   4    -0.741750098213E+02   -0.39142E-04   -0.10617E-02   120   0.490E-01    0.122E-01
DAV:   5    -0.741750319414E+02   -0.22120E-04   -0.73880E-04   124   0.159E-01
   3 F= -.74175032E+02 E0= -.74180551E+02  d E =-.166640E+00  mag=    -0.0550
       N       E                     dE             d eps       ncg     rms          rms(c)
DAV:   1    -0.741948925516E+02   -0.19883E-01   -0.20875E+01   116   0.242E+01    0.139E+00
DAV:   2    -0.741973017569E+02   -0.24092E-02   -0.44598E-01   120   0.313E+00    0.948E-01
DAV:   3    -0.741805271257E+02    0.16775E-01   -0.12184E-01   132   0.168E+00    0.237E-01
DAV:   4    -0.741790515515E+02    0.14756E-02   -0.16394E-02   120   0.611E-01    0.126E-01
DAV:   5    -0.741788957416E+02    0.15581E-03   -0.14244E-03   128   0.198E-01    0.539E-02
DAV:   6    -0.741790459691E+02   -0.15023E-03   -0.27895E-04   120   0.859E-02    0.552E-02
DAV:   7    -0.741791420300E+02   -0.96061E-04   -0.67543E-05   104   0.362E-02
   4 F= -.74179142E+02 E0= -.74188051E+02  d E =-.411009E-02  mag=    -0.0239
       N       E                     dE             d eps       ncg     rms          rms(c)
DAV:   1    -0.742772712361E+02   -0.98225E-01   -0.54778E+00   112   0.121E+01    0.869E-01
DAV:   2    -0.742634515767E+02    0.13820E-01   -0.11245E-01   124   0.166E+00    0.457E-01
DAV:   3    -0.742601358430E+02    0.33157E-02   -0.15990E-02   116   0.608E-01    0.170E-01
DAV:   4    -0.742603426410E+02   -0.20680E-03   -0.42753E-03   120   0.292E-01    0.131E-01
DAV:   5    -0.742600120132E+02    0.33063E-03   -0.19739E-03   112   0.206E-01    0.443E-02
DAV:   6    -0.742600242406E+02   -0.12227E-04   -0.17465E-04    88   0.715E-02
   5 F= -.74260024E+02 E0= -.74267907E+02  d E =-.849923E-01  mag=    -0.0276
       N       E                     dE             d eps       ncg     rms          rms(c)
DAV:   1    -0.742632890276E+02   -0.32770E-02   -0.31002E+00   112   0.918E+00    0.500E-01
DAV:   2    -0.742602975939E+02    0.29914E-02   -0.45133E-02   136   0.110E+00    0.250E-01
DAV:   3    -0.742600537820E+02    0.24381E-03   -0.25359E-03   124   0.247E-01    0.145E-01
DAV:   4    -0.742599722353E+02    0.81547E-04   -0.65533E-04   112   0.139E-01
   6 F= -.74259972E+02 E0= -.74267801E+02  d E =0.520052E-04  mag=    -0.0395
       N       E                     dE             d eps       ncg     rms          rms(c)
DAV:   1    -0.742692102565E+02   -0.91565E-02   -0.76955E-01   112   0.457E+00    0.267E-01
DAV:   2    -0.742683137169E+02    0.89654E-03   -0.15476E-02   128   0.566E-01    0.136E-01
DAV:   3    -0.742681802312E+02    0.13349E-03   -0.11566E-03   116   0.136E-01    0.748E-02
DAV:   4    -0.742681678327E+02    0.12398E-04   -0.23157E-04   116   0.818E-02
   7 F= -.74268168E+02 E0= -.74276119E+02  d E =-.814359E-02  mag=    -0.0731
       N       E                     dE             d eps       ncg     rms          rms(c)
DAV:   1    -0.742762529009E+02   -0.80727E-02   -0.42462E-01   112   0.360E+00    0.288E-01
DAV:   2    -0.742748289609E+02    0.14239E-02   -0.12188E-02   112   0.541E-01    0.116E-01
DAV:   3    -0.742748427450E+02   -0.13784E-04   -0.74812E-04   116   0.137E-01
   8 F= -.74274843E+02 E0= -.74283148E+02  d E =-.667491E-02  mag=    -0.1068
       N       E                     dE             d eps       ncg     rms          rms(c)
DAV:   1    -0.742765140119E+02   -0.16851E-02   -0.19570E-01   116   0.249E+00    0.178E-01
DAV:   2    -0.742762272660E+02    0.28675E-03   -0.46608E-03   112   0.334E-01    0.860E-02
DAV:   3    -0.742762398916E+02   -0.12626E-04   -0.63816E-04   128   0.117E-01
   9 F= -.74276240E+02 E0= -.74285676E+02  d E =-.807206E-02  mag=    -0.1409
       N       E                     dE             d eps       ncg     rms          rms(c)
DAV:   1    -0.742799317619E+02   -0.37045E-02   -0.11735E-01   116   0.186E+00    0.124E-01
DAV:   2    -0.742798682284E+02    0.63534E-04   -0.22133E-03   120   0.227E-01    0.702E-02
DAV:   3    -0.742798634029E+02    0.48255E-05   -0.13052E-04   104   0.583E-02
  10 F= -.74279863E+02 E0= -.74289137E+02  d E =-.362351E-02  mag=    -0.1390
       N       E                     dE             d eps       ncg     rms          rms(c)
DAV:   1    -0.742814835812E+02   -0.16154E-02   -0.14391E-01   112   0.206E+00    0.151E-01
DAV:   2    -0.742812159142E+02    0.26767E-03   -0.35341E-03   112   0.282E-01    0.755E-02
DAV:   3    -0.742812483851E+02   -0.32471E-04   -0.24474E-04   104   0.777E-02
  11 F= -.74281248E+02 E0= -.74290244E+02  d E =-.500849E-02  mag=    -0.1354
       N       E                     dE             d eps       ncg     rms          rms(c)
DAV:   1    -0.742819995718E+02   -0.78366E-03   -0.21849E-02   112   0.760E-01    0.640E-02
DAV:   2    -0.742819329668E+02    0.66605E-04   -0.61106E-04   112   0.125E-01
  12 F= -.74281933E+02 E0= -.74290766E+02  d E =-.684582E-03  mag=    -0.1309
       N       E                     dE             d eps       ncg     rms          rms(c)
DAV:   1    -0.742823200547E+02   -0.32048E-03   -0.34406E-02   112   0.962E-01    0.735E-02
DAV:   2    -0.742822475563E+02    0.72498E-04   -0.73033E-04   128   0.140E-01
  13 F= -.74282248E+02 E0= -.74290919E+02  d E =-.999171E-03  mag=    -0.1274
