 vasp.5.2.12 11Nov11 complex                                                    
  
 executed on             LinuxIFC date 2012.10.29  01:41:43
 running on    1 nodes
 distr:  one band on    1 nodes,    1 groups


--------------------------------------------------------------------------------------------------------


 INCAR:
 POTCAR:   PAW_PBE H 15Jun2001                    
 POTCAR:   PAW_PBE C 08Apr2002                    
 POTCAR:   PAW_PBE H 15Jun2001                    
   VRHFIN =H: ultrasoft test                                                    
   LEXCH  = PE                                                                  
   EATOM  =    12.4884 eV,     .9179 Ry                                         
                                                                                
   TITEL  = PAW_PBE H 15Jun2001                                                 
   LULTRA =        F    use ultrasoft PP ?                                      
   IUNSCR =        0    unscreen: 0-lin 1-nonlin 2-no                           
   RPACOR =     .000    partial core radius                                     
   POMASS =    1.000; ZVAL   =    1.000    mass and valenz                      
   RCORE  =    1.100    outmost cutoff radius                                   
   RWIGS  =     .700; RWIGS  =     .370    wigner-seitz radius (au A)           
   ENMAX  =  250.000; ENMIN  =  200.000 eV                                      
   RCLOC  =     .701    cutoff for local pot                                    
   LCOR   =        T    correct aug charges                                     
   LPAW   =        T    paw PP                                                  
   EAUG   =  400.000                                                            
   RMAX   =    2.174    core radius for proj-oper                               
   RAUG   =    1.200    factor for augmentation sphere                          
   RDEP   =    1.112    radius for radial grids                                 
   QCUT   =   -5.749; QGAM   =   11.498    optimization parameters              
                                                                                
   Description                                                                  
     l     E      TYP  RCUT    TYP  RCUT                                        
     0   .000     23  1.100                                                     
     0   .500     23  1.100                                                     
     1  -.300     23  1.100                                                     
  local pseudopotential read in
  atomic valenz-charges read in
  non local Contribution for L=           0  read in
    real space projection operators read in
  non local Contribution for L=           0  read in
    real space projection operators read in
  non local Contribution for L=           1  read in
    real space projection operators read in
    PAW grid and wavefunctions read in
 
   number of l-projection  operators is LMAX  =           3
   number of lm-projection operators is LMMAX =           5
 
 POTCAR:   PAW_PBE C 08Apr2002                    
   VRHFIN =C: s2p2                                                              
   LEXCH  = PE                                                                  
   EATOM  =   147.1560 eV,   10.8157 Ry                                         
                                                                                
   TITEL  = PAW_PBE C 08Apr2002                                                 
   LULTRA =        F    use ultrasoft PP ?                                      
   IUNSCR =        0    unscreen: 0-lin 1-nonlin 2-no                           
   RPACOR =     .000    partial core radius                                     
   POMASS =   12.011; ZVAL   =    4.000    mass and valenz                      
   RCORE  =    1.500    outmost cutoff radius                                   
   RWIGS  =    1.630; RWIGS  =     .863    wigner-seitz radius (au A)           
   ENMAX  =  400.000; ENMIN  =  300.000 eV                                      
   ICORE  =        2    local potential                                         
   LCOR   =        T    correct aug charges                                     
   LPAW   =        T    paw PP                                                  
   EAUG   =  644.873                                                            
   DEXC   =     .000                                                            
   RMAX   =    2.266    core radius for proj-oper                               
   RAUG   =    1.300    factor for augmentation sphere                          
   RDEP   =    1.501    radius for radial grids                                 
   RDEPT  =    1.300    core radius for aug-charge                              
   QCUT   =   -5.516; QGAM   =   11.032    optimization parameters              
                                                                                
   Description                                                                  
     l     E      TYP  RCUT    TYP  RCUT                                        
     0   .000     23  1.200                                                     
     0   .000     23  1.200                                                     
     1   .000     23  1.500                                                     
     1  2.500     23  1.500                                                     
     2   .000      7  1.500                                                     
  local pseudopotential read in
  atomic valenz-charges read in
  non local Contribution for L=           0  read in
    real space projection operators read in
  non local Contribution for L=           0  read in
    real space projection operators read in
  non local Contribution for L=           1  read in
    real space projection operators read in
  non local Contribution for L=           1  read in
    real space projection operators read in
    PAW grid and wavefunctions read in
 
   number of l-projection  operators is LMAX  =           4
   number of lm-projection operators is LMMAX =           8
 
 PAW_PBE H 15Jun2001                    :
 energy of atom  1       EATOM=  -12.4884
 kinetic energy error for atom=    0.0203 (will be added to EATOM!!)
 PAW_PBE C 08Apr2002                    :
 energy of atom  2       EATOM= -147.1560
 kinetic energy error for atom=    0.0854 (will be added to EATOM!!)
 
 
 POSCAR:  H  C                                   
  positions in cartesian coordinates
  No initial velocities read in
 exchange correlation table for  LEXCH =        8
   RHO(1)=    0.500       N(1)  =     2000
   RHO(2)=  100.500       N(2)  =     4000
 


--------------------------------------------------------------------------------------------------------


 ion  position               nearest neighbor table
   1  0.500  0.914  0.500-   7 1.09
   2  0.858  0.707  0.500-   8 1.09
   3  0.858  0.293  0.500-   9 1.09
   4  0.500  0.086  0.500-  10 1.09
   5  0.142  0.293  0.500-  11 1.09
   6  0.142  0.707  0.500-  12 1.09
   7  0.500  0.733  0.500-   1 1.09   8 1.40  12 1.40
   8  0.701  0.616  0.500-   2 1.09   7 1.40   9 1.40
   9  0.701  0.384  0.500-   3 1.09  10 1.40   8 1.40
  10  0.500  0.267  0.500-   4 1.09   9 1.40  11 1.40
  11  0.299  0.384  0.500-   5 1.09  10 1.40  12 1.40
  12  0.299  0.616  0.500-   6 1.09   7 1.40  11 1.40
 
  LATTYP: Found a simple cubic cell.
 ALAT       =     6.0000000000
  
  Lattice vectors:
  
 A1 = (   6.0000000000,   0.0000000000,   0.0000000000)
 A2 = (   0.0000000000,   6.0000000000,   0.0000000000)
 A3 = (   0.0000000000,   0.0000000000,   6.0000000000)
 Subroutine PRICEL returns:
 Original cell was already a primitive cell.
 

Analysis of symmetry for initial positions (statically):

 Routine SETGRP: Setting up the symmetry group for a 
 simple cubic supercell.


 Subroutine GETGRP returns: Found  8 space group operations
 (whereof  8 operations were pure point group operations)
 out of a pool of 48 trial point group operations.


The static configuration has the point symmetry D_2h.

Analysis of symmetry for dynamics (positions and initial velocities):

 Subroutine DYNSYM returns: Found  8 space group operations
 (whereof  8 operations were pure point group operations)
 out of a pool of  8 trial space group operations
 (whereof  8 operations were pure point group operations)
 and found also     1 'primitive' translations


The dynamic configuration has the point symmetry D_2h.

Analysis of magnetic symmetry:

 Subroutine MAGSYM returns: Found  8 space group operations
 (whereof  8 operations were pure point group operations)
 out of a pool of  8 trial space group operations
 (whereof  8 operations were pure point group operations)
 and found also     1 'primitive' translations


The magnetic configuration has the point symmetry D_2h.
 
 
 KPOINTS: KPOINTS created by Atomic Simulation Env

Automatic generation of k-mesh.
 
 Subroutine IBZKPT returns following result:
 ===========================================
 
 Found      1 irreducible k-points:
 
 Following reciprocal coordinates:
            Coordinates               Weight
  0.000000  0.000000  0.000000      1.000000
 
 Following cartesian coordinates:
            Coordinates               Weight
  0.000000  0.000000  0.000000      1.000000
 


--------------------------------------------------------------------------------------------------------




 Dimension of arrays:
   k-points           NKPTS =      1   k-points in BZ     NKDIM =      1   number of bands    NBANDS=     28
   number of dos      NEDOS =    301   number of ions     NIONS =     12
   non local maximal  LDIM  =      4   non local SUM 2l+1 LMDIM =      8
   total plane-waves  NPLWV =  21952
   max r-space proj   IRMAX =      1   max aug-charges    IRDMAX=   1399
   dimension x,y,z NGX =    28 NGY =   28 NGZ =   28
   dimension x,y,z NGXF=    56 NGYF=   56 NGZF=   56
   support grid    NGXF=    56 NGYF=   56 NGZF=   56
   ions per type =               6   6
 NGX,Y,Z   is equivalent  to a cutoff of   7.76,  7.76,  7.76 a.u.
 NGXF,Y,Z  is equivalent  to a cutoff of  15.52, 15.52, 15.52 a.u.


 I would recommend the setting:
   dimension x,y,z NGX =    27 NGY =   27 NGZ =   27
 SYSTEM =  unknown system                          
 POSCAR =   H  C                                   

 Startparameter for this run:
   NWRITE =      2    write-flag & timer
   PREC   = normal    normal or accurate (medium, high low for compatibility)
   ISTART =      0    job   : 0-new  1-cont  2-samecut
   ICHARG =      2    charge: 1-file 2-atom 10-const
   ISPIN  =      2    spin polarized calculation?
   LNONCOLLINEAR =      F non collinear calculations
   LSORBIT =      F    spin-orbit coupling
   INIWAV =      1    electr: 0-lowe 1-rand  2-diag
   LASPH  =      F    aspherical Exc in radial PAW
   METAGGA=      F    non-selfconsistent MetaGGA calc.

 Electronic Relaxation 1
   ENCUT  =  350.0 eV  25.72 Ry    5.07 a.u.   9.15  9.15  9.15*2*pi/ulx,y,z
   ENINI  =  350.0     initial cutoff
   ENAUG  =  644.9 eV  augmentation charge cutoff
   NELM   =     60;   NELMIN=  2; NELMDL= -5     # of ELM steps 
   EDIFF  = 0.1E-03   stopping-criterion for ELM
   LREAL  =      F    real-space projection
   NLSPLINE    = F    spline interpolate recip. space projectors
   LCOMPAT=      F    compatible to vasp.4.4
   GGA_COMPAT  = T    GGA compatible to vasp.4.4-vasp.4.6
   LMAXPAW     = -100 max onsite density
   LMAXMIX     =    2 max onsite mixed and CHGCAR
   VOSKOWN=      0    Vosko Wilk Nusair interpolation
   ROPT   =    0.00000   0.00000
 Ionic relaxation
   EDIFFG = 0.1E-02   stopping-criterion for IOM
   NSW    =     20    number of steps for IOM
   NBLOCK =      1;   KBLOCK =     20    inner block; outer block 
   IBRION =      2    ionic relax: 0-MD 1-quasi-New 2-CG
   NFREE  =      1    steps in history (QN), initial steepest desc. (CG)
   ISIF   =      2    stress and relaxation
   IWAVPR =     11    prediction:  0-non 1-charg 2-wave 3-comb
   ISYM   =      2    0-nonsym 1-usesym 2-fastsym
   LCORR  =      T    Harris-Foulkes like correction to forces

   POTIM  = 0.5000    time-step for ionic-motion
   TEIN   =    0.0    initial temperature
   TEBEG  =    0.0;   TEEND  =   0.0 temperature during run
   SMASS  =  -3.00    Nose mass-parameter (am)
   estimated Nose-frequenzy (Omega)   =  0.10E-29 period in steps =****** mass=  -0.823E-27a.u.
   SCALEE = 1.0000    scale energy and forces
   NPACO  =    256;   APACO  = 16.0  distance and # of slots for P.C.
   PSTRESS=    0.0 pullay stress

  Mass of Ions in am
   POMASS =   1.00 12.01
  Ionic Valenz
   ZVAL   =   1.00  4.00
  Atomic Wigner-Seitz radii
   RWIGS  =  -1.00 -1.00
  virtual crystal weights 
   VCA    =   1.00  1.00
   NELECT =      30.0000    total number of electrons
   NUPDOWN=      -1.0000    fix difference up-down

 DOS related values:
   EMIN   =  10.00;   EMAX   =-10.00  energy-range for DOS
   EFERMI =   0.00
   ISMEAR =     1;   SIGMA  =   0.20  broadening in eV -4-tet -1-fermi 0-gaus

 Electronic relaxation 2 (details)
   IALGO  =     38    algorithm
   LDIAG  =      T    sub-space diagonalisation (order eigenvalues)
   LSUBROT=      T    optimize rotation matrix (better conditioning)
   TURBO    =      0    0=normal 1=particle mesh
   IRESTART =      0    0=no restart 2=restart with 2 vectors
   NREBOOT  =      0    no. of reboots
   NMIN     =      0    reboot dimension
   EREF     =   0.00    reference energy to select bands
   IMIX   =      4    mixing-type and parameters
     AMIX     =   0.40;   BMIX     =  1.00
     AMIX_MAG =   1.60;   BMIX_MAG =  1.00
     AMIN     =   0.10
     WC   =   100.;   INIMIX=   1;  MIXPRE=   1

 Intra band minimization:
   WEIMIN = 0.0010     energy-eigenvalue tresh-hold
   EBREAK =  0.89E-06  absolut break condition
   DEPER  =   0.30     relativ break condition  

   TIME   =   0.40     timestep for ELM

  volume/ion in A,a.u.               =      18.00       121.47
  Fermi-wavevector in a.u.,A,eV,Ry     =   0.847808  1.602124  9.779566  0.718778
  Thomas-Fermi vector in A             =   1.963372
 
 Write flags
   LWAVE  =      T    write WAVECAR
   LCHARG =      T    write CHGCAR
   LVTOT  =      F    write LOCPOT, total local potential
   LVHAR  =      F    write LOCPOT, Hartree potential only
   LELF   =      F    write electronic localiz. function (ELF)
   LORBIT =      0    0 simple, 1 ext, 2 COOP (PROOUT)


 Dipole corrections
   LMONO  =      F    monopole corrections only (constant potential shift)
   LDIPOL =      F    correct potential (dipole corrections)
   IDIPOL =      0    1-x, 2-y, 3-z, 4-all directions 
   EPSILON=  1.0000000 bulk dielectric constant

 Exchange correlation treatment:
   GGA     =    --    GGA type
   LEXCH   =     8    internal setting for exchange type
   VOSKOWN=      0    Vosko Wilk Nusair interpolation
   LHFCALC =     F    Hartree Fock is set to
   LHFONE  =     F    Hartree Fock one center treatment
   AEXX    =    0.0000 exact exchange contribution

 Linear response parameters
   LEPSILON=     F    determine dielectric tensor
   LRPA    =     F    only Hartree local field effects (RPA)
   LNABLA  =     F    use nabla operator in PAW spheres
   LVEL    =     F    velocity operator in full k-point grid
   LINTERFAST=   F  fast interpolation
   KINTER  =     0    interpolate to denser k-point grid
   CSHIFT  =0.1000    complex shift for real part using Kramers Kronig
   OMEGAMAX=  -1.0    maximum frequency
   RTIME   =    0.100 relaxation time in fs

 Orbital magnetization related:
   ORBITALMAG=     F  switch on orbital magnetization
   LCHIMAG   =     F  perturbation theory with respect to B field
   DQ        =  0.001000  dq finite difference perturbation B field



--------------------------------------------------------------------------------------------------------


 conjugate gradient relaxation of ions
 charge density and potential will be updated during run
 spin polarized calculation
 Variant of blocked Davidson
 Davidson routine will perform the subspace rotation
 perform sub-space diagonalisation
    after iterative eigenvector-optimisation
 modified Broyden-mixing scheme, WC =      100.0
 initial mixing is a Kerker type mixing with AMIX =  0.4000 and BMIX =      1.0000
 Hartree-type preconditioning will be used
 using additional bands           13
 reciprocal scheme for non local part
 calculate Harris-corrections to forces 
   (improved forces if not selfconsistent)
 use gradient corrections 
 use of overlap-Matrix (Vanderbilt PP)
 Methfessel and Paxton  Order N= 1 SIGMA  =   0.20


--------------------------------------------------------------------------------------------------------


  energy-cutoff  :      350.00
  volume of cell :      216.00
      direct lattice vectors                 reciprocal lattice vectors
     6.000000000  0.000000000  0.000000000     0.166666667  0.000000000  0.000000000
     0.000000000  6.000000000  0.000000000     0.000000000  0.166666667  0.000000000
     0.000000000  0.000000000  6.000000000     0.000000000  0.000000000  0.166666667

  length of vectors
     6.000000000  6.000000000  6.000000000     0.166666667  0.166666667  0.166666667


 
 k-points in units of 2pi/SCALE and weight: KPOINTS created by Atomic Simulation Env
   0.00000000  0.00000000  0.00000000       1.000
 
 k-points in reciprocal lattice and weights: KPOINTS created by Atomic Simulation Env
   0.00000000  0.00000000  0.00000000       1.000
 
 position of ions in fractional coordinates (direct lattice) 
   0.50000000  0.91372667  0.50000000
   0.85829783  0.70686333  0.50000000
   0.85829783  0.29313667  0.50000000
   0.50000000  0.08627333  0.50000000
   0.14170217  0.29313667  0.50000000
   0.14170217  0.70686333  0.50000000
   0.50000000  0.73254133  0.50000000
   0.70138667  0.61627067  0.50000000
   0.70138667  0.38372933  0.50000000
   0.50000000  0.26745867  0.50000000
   0.29861333  0.38372933  0.50000000
   0.29861333  0.61627067  0.50000000
 
 position of ions in cartesian coordinates  (Angst):
   3.00000000  5.48236000  3.00000000
   5.14978700  4.24118000  3.00000000
   5.14978700  1.75882000  3.00000000
   3.00000000  0.51764000  3.00000000
   0.85021300  1.75882000  3.00000000
   0.85021300  4.24118000  3.00000000
   3.00000000  4.39524800  3.00000000
   4.20832000  3.69762400  3.00000000
   4.20832000  2.30237600  3.00000000
   3.00000000  1.60475200  3.00000000
   1.79168000  2.30237600  3.00000000
   1.79168000  3.69762400  3.00000000
 


--------------------------------------------------------------------------------------------------------


 k-point  1 :  0.00000.00000.0000  plane waves:    3191

 maximum and minimum number of plane-waves per node :      3191     3191

 maximum number of plane-waves:      3191
 maximum index in each direction: 
   IXMAX=    9   IYMAX=    9   IZMAX=    9
   IXMIN=   -9   IYMIN=   -9   IZMIN=   -9

 WARNING: aliasing errors must be expected set NGX to  38 to avoid them
 WARNING: aliasing errors must be expected set NGY to  38 to avoid them
 WARNING: aliasing errors must be expected set NGZ to  38 to avoid them
 aliasing errors are usually negligible using standard VASP settings
 and one can safely disregard these warnings

 serial   3D FFT for wavefunctions
 parallel 3D FFT for charge:
    minimum data exchange during FFTs selected (reduces bandwidth)


 total amount of memory used by VASP on root node    56446. kBytes
========================================================================

   base      :      30000. kBytes
   nonl-proj :       1021. kBytes
   fftplans  :       6192. kBytes
   grid      :      16231. kBytes
   one-center:         73. kBytes
   wavefun   :       2929. kBytes
 
 Broyden mixing: mesh for mixing (old mesh)
   NGX = 19   NGY = 19   NGZ = 19
  (NGX  = 56   NGY  = 56   NGZ  = 56)
  gives a total of   6859 points

 initial charge density was supplied:
 charge density of overlapping atoms calculated
 number of electron      30.0000000 magnetization      12.0000000
 keeping initial charge density in first step


--------------------------------------------------------------------------------------------------------


 Maximum index for augmentation-charges         1189 (set IRDMAX)


--------------------------------------------------------------------------------------------------------


 First call to EWALD:  gamma=   0.295
 Maximum number of real-space cells 3x 3x 3
 Maximum number of reciprocal cells 3x 3x 3

    FEWALD:  cpu time    0.00: real time    0.00


----------------------------------------- Iteration    1(   1)  ---------------------------------------


    POTLOK:  cpu time    0.68: real time    0.68
    SETDIJ:  cpu time    0.12: real time    0.13
     EDDAV:  cpu time    0.90: real time    0.90
       DOS:  cpu time    0.00: real time    0.00
    --------------------------------------------
      LOOP:  cpu time    1.71: real time    1.73

 eigenvalue-minimisations  :   112
 total energy-change (2. order) : 0.1571657E+03  (-0.1015856E+04)
 number of electron      30.0000000 magnetization      12.0000000
 augmentation part       30.0000000 magnetization      12.0000000

 Free energy of the ion-electron system (eV)
  ---------------------------------------------------
  alpha Z        PSCENC =        19.00520200
  Ewald energy   TEWEN  =       147.99488268
  -1/2 Hartree   DENC   =      -880.77881635
  -exchange  EXHF       =         0.00000000
  -V(xc)+E(xc)   XCENC  =        99.20826619
  PAW double counting   =       229.49348703     -236.39350157
  entropy T*S    EENTRO =         0.01764786
  eigenvalues    EBANDS =      -178.61402119
  atomic energy  EATOM  =       957.23250565
  ---------------------------------------------------
  free energy    TOTEN  =       157.16565231 eV

  energy without entropy =      157.14800445  energy(sigma->0) =      157.15976969


--------------------------------------------------------------------------------------------------------




----------------------------------------- Iteration    1(   2)  ---------------------------------------


     EDDAV:  cpu time    1.22: real time    1.22
       DOS:  cpu time    0.00: real time    0.00
    --------------------------------------------
      LOOP:  cpu time    1.22: real time    1.22

 eigenvalue-minimisations  :   172
 total energy-change (2. order) :-0.2043140E+03  (-0.1922044E+03)
 number of electron      30.0000000 magnetization      12.0000000
 augmentation part       30.0000000 magnetization      12.0000000

 Free energy of the ion-electron system (eV)
  ---------------------------------------------------
  alpha Z        PSCENC =        19.00520200
  Ewald energy   TEWEN  =       147.99488268
  -1/2 Hartree   DENC   =      -880.77881635
  -exchange  EXHF       =         0.00000000
  -V(xc)+E(xc)   XCENC  =        99.20826619
  PAW double counting   =       229.49348703     -236.39350157
  entropy T*S    EENTRO =         0.00777255
  eigenvalues    EBANDS =      -382.91811110
  atomic energy  EATOM  =       957.23250565
  ---------------------------------------------------
  free energy    TOTEN  =       -47.14831291 eV

  energy without entropy =      -47.15608546  energy(sigma->0) =      -47.15090376


--------------------------------------------------------------------------------------------------------




----------------------------------------- Iteration    1(   3)  ---------------------------------------


     EDDAV:  cpu time    1.09: real time    1.09
       DOS:  cpu time    0.00: real time    0.00
    --------------------------------------------
      LOOP:  cpu time    1.09: real time    1.11

 eigenvalue-minimisations  :   152
 total energy-change (2. order) :-0.2072807E+02  (-0.2062664E+02)
 number of electron      30.0000000 magnetization      12.0000000
 augmentation part       30.0000000 magnetization      12.0000000

 Free energy of the ion-electron system (eV)
  ---------------------------------------------------
  alpha Z        PSCENC =        19.00520200
  Ewald energy   TEWEN  =       147.99488268
  -1/2 Hartree   DENC   =      -880.77881635
  -exchange  EXHF       =         0.00000000
  -V(xc)+E(xc)   XCENC  =        99.20826619
  PAW double counting   =       229.49348703     -236.39350157
  entropy T*S    EENTRO =         0.01170331
  eigenvalues    EBANDS =      -403.65010702
  atomic energy  EATOM  =       957.23250565
  ---------------------------------------------------
  free energy    TOTEN  =       -67.87637807 eV

  energy without entropy =      -67.88808138  energy(sigma->0) =      -67.88027917


--------------------------------------------------------------------------------------------------------




----------------------------------------- Iteration    1(   4)  ---------------------------------------


     EDDAV:  cpu time    1.05: real time    1.05
       DOS:  cpu time    0.00: real time    0.00
    --------------------------------------------
      LOOP:  cpu time    1.05: real time    1.07

 eigenvalue-minimisations  :   144
 total energy-change (2. order) :-0.4096051E+00  (-0.4093508E+00)
 number of electron      30.0000000 magnetization      12.0000000
 augmentation part       30.0000000 magnetization      12.0000000

 Free energy of the ion-electron system (eV)
  ---------------------------------------------------
  alpha Z        PSCENC =        19.00520200
  Ewald energy   TEWEN  =       147.99488268
  -1/2 Hartree   DENC   =      -880.77881635
  -exchange  EXHF       =         0.00000000
  -V(xc)+E(xc)   XCENC  =        99.20826619
  PAW double counting   =       229.49348703     -236.39350157
  entropy T*S    EENTRO =         0.01166345
  eigenvalues    EBANDS =      -404.05967224
  atomic energy  EATOM  =       957.23250565
  ---------------------------------------------------
  free energy    TOTEN  =       -68.28598315 eV

  energy without entropy =      -68.29764660  energy(sigma->0) =      -68.28987097


--------------------------------------------------------------------------------------------------------




----------------------------------------- Iteration    1(   5)  ---------------------------------------


     EDDAV:  cpu time    1.14: real time    1.15
       DOS:  cpu time    0.00: real time    0.00
    CHARGE:  cpu time    0.10: real time    0.10
    MIXING:  cpu time    0.02: real time    0.02
    --------------------------------------------
      LOOP:  cpu time    1.27: real time    1.28

 eigenvalue-minimisations  :   156
 total energy-change (2. order) :-0.7696624E-02  (-0.7694601E-02)
 number of electron      29.9999967 magnetization       1.9575832
 augmentation part        0.7791570 magnetization       1.9707773

 Broyden mixing:
  rms(total) = 0.22128E+01    rms(broyden)= 0.22121E+01
  rms(prec ) = 0.31521E+01
  weight for this iteration     100.00

 Free energy of the ion-electron system (eV)
  ---------------------------------------------------
  alpha Z        PSCENC =        19.00520200
  Ewald energy   TEWEN  =       147.99488268
  -1/2 Hartree   DENC   =      -880.77881635
  -exchange  EXHF       =         0.00000000
  -V(xc)+E(xc)   XCENC  =        99.20826619
  PAW double counting   =       229.49348703     -236.39350157
  entropy T*S    EENTRO =         0.01166343
  eigenvalues    EBANDS =      -404.06736885
  atomic energy  EATOM  =       957.23250565
  ---------------------------------------------------
  free energy    TOTEN  =       -68.29367978 eV

  energy without entropy =      -68.30534320  energy(sigma->0) =      -68.29756759


--------------------------------------------------------------------------------------------------------




----------------------------------------- Iteration    1(   6)  ---------------------------------------


    POTLOK:  cpu time    0.66: real time    0.66
    SETDIJ:  cpu time    0.13: real time    0.13
     EDDAV:  cpu time    0.93: real time    0.93
       DOS:  cpu time    0.00: real time    0.00
    CHARGE:  cpu time    0.10: real time    0.10
    MIXING:  cpu time    0.01: real time    0.01
    --------------------------------------------
      LOOP:  cpu time    1.83: real time    1.85

 eigenvalue-minimisations  :   120
 total energy-change (2. order) :-0.3093352E+00  (-0.3734152E+01)
 number of electron      29.9999949 magnetization       0.0510635
 augmentation part        0.7539392 magnetization       0.0187927

 Broyden mixing:
  rms(total) = 0.84419E+00    rms(broyden)= 0.84366E+00
  rms(prec ) = 0.13742E+01
  weight for this iteration     100.00

 eigenvalues of (default mixing * dielectric matrix)
  average eigenvalue GAMMA=   0.9263
  0.9263

 Free energy of the ion-electron system (eV)
  ---------------------------------------------------
  alpha Z        PSCENC =        19.00520200
  Ewald energy   TEWEN  =       147.99488268
  -1/2 Hartree   DENC   =      -939.94946935
  -exchange  EXHF       =         0.00000000
  -V(xc)+E(xc)   XCENC  =       103.38238485
  PAW double counting   =       340.57455096     -348.21427300
  entropy T*S    EENTRO =         0.01167664
  eigenvalues    EBANDS =      -348.64047540
  atomic energy  EATOM  =       957.23250565
  ---------------------------------------------------
  free energy    TOTEN  =       -68.60301496 eV

  energy without entropy =      -68.61469160  energy(sigma->0) =      -68.60690717


--------------------------------------------------------------------------------------------------------




----------------------------------------- Iteration    1(   7)  ---------------------------------------


    POTLOK:  cpu time    0.66: real time    0.66
    SETDIJ:  cpu time    0.13: real time    0.13
     EDDAV:  cpu time    1.01: real time    1.01
       DOS:  cpu time    0.00: real time    0.00
    CHARGE:  cpu time    0.10: real time    0.10
    MIXING:  cpu time    0.01: real time    0.02
    --------------------------------------------
      LOOP:  cpu time    1.92: real time    1.93

 eigenvalue-minimisations  :   132
 total energy-change (2. order) :-0.5551184E+01  (-0.1246482E+01)
 number of electron      29.9999949 magnetization      -0.2174578
 augmentation part        0.7103374 magnetization      -0.0959648

 Broyden mixing:
  rms(total) = 0.37527E+00    rms(broyden)= 0.37507E+00
  rms(prec ) = 0.59378E+00
  weight for this iteration     100.00

 eigenvalues of (default mixing * dielectric matrix)
  average eigenvalue GAMMA=   1.0627
  0.8909  1.2345

 Free energy of the ion-electron system (eV)
  ---------------------------------------------------
  alpha Z        PSCENC =        19.00520200
  Ewald energy   TEWEN  =       147.99488268
  -1/2 Hartree   DENC   =      -974.01257790
  -exchange  EXHF       =         0.00000000
  -V(xc)+E(xc)   XCENC  =       101.12670850
  PAW double counting   =       407.10747408     -415.02146894
  entropy T*S    EENTRO =         0.02485863
  eigenvalues    EBANDS =      -317.61178376
  atomic energy  EATOM  =       957.23250565
  ---------------------------------------------------
  free energy    TOTEN  =       -74.15419905 eV

  energy without entropy =      -74.17905768  energy(sigma->0) =      -74.16248526


--------------------------------------------------------------------------------------------------------




----------------------------------------- Iteration    1(   8)  ---------------------------------------


    POTLOK:  cpu time    0.66: real time    0.66
    SETDIJ:  cpu time    0.12: real time    0.13
     EDDAV:  cpu time    1.04: real time    1.04
       DOS:  cpu time    0.00: real time    0.00
    CHARGE:  cpu time    0.10: real time    0.10
    MIXING:  cpu time    0.01: real time    0.02
    --------------------------------------------
      LOOP:  cpu time    1.94: real time    1.95

 eigenvalue-minimisations  :   136
 total energy-change (2. order) : 0.1224710E+00  (-0.6835422E-01)
 number of electron      29.9999949 magnetization      -0.0649657
 augmentation part        0.7021853 magnetization      -0.0086332

 Broyden mixing:
  rms(total) = 0.18319E+00    rms(broyden)= 0.18316E+00
  rms(prec ) = 0.29254E+00
  weight for this iteration     100.00

 eigenvalues of (default mixing * dielectric matrix)
  average eigenvalue GAMMA=   1.1997
  1.7681  1.0474  0.7835

 Free energy of the ion-electron system (eV)
  ---------------------------------------------------
  alpha Z        PSCENC =        19.00520200
  Ewald energy   TEWEN  =       147.99488268
  -1/2 Hartree   DENC   =      -987.86214480
  -exchange  EXHF       =         0.00000000
  -V(xc)+E(xc)   XCENC  =       101.99574636
  PAW double counting   =       437.98174627     -445.88405687
  entropy T*S    EENTRO =         0.02384753
  eigenvalues    EBANDS =      -304.51945689
  atomic energy  EATOM  =       957.23250565
  ---------------------------------------------------
  free energy    TOTEN  =       -74.03172806 eV

  energy without entropy =      -74.05557558  energy(sigma->0) =      -74.03967723


--------------------------------------------------------------------------------------------------------




----------------------------------------- Iteration    1(   9)  ---------------------------------------


    POTLOK:  cpu time    0.68: real time    0.68
    SETDIJ:  cpu time    0.13: real time    0.13
     EDDAV:  cpu time    1.03: real time    1.03
       DOS:  cpu time    0.00: real time    0.00
    CHARGE:  cpu time    0.10: real time    0.10
    MIXING:  cpu time    0.02: real time    0.02
    --------------------------------------------
      LOOP:  cpu time    1.96: real time    1.97

 eigenvalue-minimisations  :   136
 total energy-change (2. order) : 0.3544138E-01  (-0.1727982E-01)
 number of electron      29.9999951 magnetization      -0.0779207
 augmentation part        0.6980135 magnetization      -0.0003898

 Broyden mixing:
  rms(total) = 0.57560E-01    rms(broyden)= 0.57519E-01
  rms(prec ) = 0.10941E+00
  weight for this iteration     100.00

 eigenvalues of (default mixing * dielectric matrix)
  average eigenvalue GAMMA=   1.2704
  2.2330  1.1797  0.9688  0.7002

 Free energy of the ion-electron system (eV)
  ---------------------------------------------------
  alpha Z        PSCENC =        19.00520200
  Ewald energy   TEWEN  =       147.99488268
  -1/2 Hartree   DENC   =      -996.43117021
  -exchange  EXHF       =         0.00000000
  -V(xc)+E(xc)   XCENC  =       102.57713153
  PAW double counting   =       454.06429202     -461.92436224
  entropy T*S    EENTRO =         0.02416854
  eigenvalues    EBANDS =      -296.53893666
  atomic energy  EATOM  =       957.23250565
  ---------------------------------------------------
  free energy    TOTEN  =       -73.99628668 eV

  energy without entropy =      -74.02045522  energy(sigma->0) =      -74.00434286


--------------------------------------------------------------------------------------------------------




----------------------------------------- Iteration    1(  10)  ---------------------------------------


    POTLOK:  cpu time    0.64: real time    0.64
    SETDIJ:  cpu time    0.12: real time    0.12
     EDDAV:  cpu time    0.93: real time    0.93
       DOS:  cpu time    0.00: real time    0.00
    CHARGE:  cpu time    0.10: real time    0.10
    MIXING:  cpu time    0.02: real time    0.02
    --------------------------------------------
      LOOP:  cpu time    1.82: real time    1.83

 eigenvalue-minimisations  :   120
 total energy-change (2. order) :-0.3916919E-02  (-0.2270028E-02)
 number of electron      29.9999951 magnetization      -0.0816263
 augmentation part        0.6966242 magnetization      -0.0072885

 Broyden mixing:
  rms(total) = 0.26911E-01    rms(broyden)= 0.26897E-01
  rms(prec ) = 0.64096E-01
  weight for this iteration     100.00

 eigenvalues of (default mixing * dielectric matrix)
  average eigenvalue GAMMA=   1.2086
  2.2804  1.2900  0.9575  0.8429  0.6720

 Free energy of the ion-electron system (eV)
  ---------------------------------------------------
  alpha Z        PSCENC =        19.00520200
  Ewald energy   TEWEN  =       147.99488268
  -1/2 Hartree   DENC   =      -999.83174833
  -exchange  EXHF       =         0.00000000
  -V(xc)+E(xc)   XCENC  =       102.76265253
  PAW double counting   =       457.53128400     -465.37518292
  entropy T*S    EENTRO =         0.02411268
  eigenvalues    EBANDS =      -293.34391189
  atomic energy  EATOM  =       957.23250565
  ---------------------------------------------------
  free energy    TOTEN  =       -74.00020359 eV

  energy without entropy =      -74.02431627  energy(sigma->0) =      -74.00824115


--------------------------------------------------------------------------------------------------------




----------------------------------------- Iteration    1(  11)  ---------------------------------------


    POTLOK:  cpu time    0.64: real time    0.65
    SETDIJ:  cpu time    0.12: real time    0.12
     EDDAV:  cpu time    0.92: real time    0.92
       DOS:  cpu time    0.00: real time    0.00
    CHARGE:  cpu time    0.10: real time    0.10
    MIXING:  cpu time    0.02: real time    0.02
    --------------------------------------------
      LOOP:  cpu time    1.81: real time    1.82

 eigenvalue-minimisations  :   120
 total energy-change (2. order) :-0.4088441E-02  (-0.4855765E-03)
 number of electron      29.9999951 magnetization      -0.0989665
 augmentation part        0.6961315 magnetization      -0.0057550

 Broyden mixing:
  rms(total) = 0.19196E-01    rms(broyden)= 0.19192E-01
  rms(prec ) = 0.36158E-01
  weight for this iteration     100.00

 eigenvalues of (default mixing * dielectric matrix)
  average eigenvalue GAMMA=   1.3075
  2.1825  2.1825  1.1591  0.9435  0.7429  0.6345

 Free energy of the ion-electron system (eV)
  ---------------------------------------------------
  alpha Z        PSCENC =        19.00520200
  Ewald energy   TEWEN  =       147.99488268
  -1/2 Hartree   DENC   =     -1001.56026599
  -exchange  EXHF       =         0.00000000
  -V(xc)+E(xc)   XCENC  =       102.81321684
  PAW double counting   =       456.08425989     -463.91029609
  entropy T*S    EENTRO =         0.02460805
  eigenvalues    EBANDS =      -291.68840508
  atomic energy  EATOM  =       957.23250565
  ---------------------------------------------------
  free energy    TOTEN  =       -74.00429204 eV

  energy without entropy =      -74.02890009  energy(sigma->0) =      -74.01249472


--------------------------------------------------------------------------------------------------------




----------------------------------------- Iteration    1(  12)  ---------------------------------------


    POTLOK:  cpu time    0.65: real time    0.65
    SETDIJ:  cpu time    0.12: real time    0.12
     EDDAV:  cpu time    0.92: real time    0.92
       DOS:  cpu time    0.00: real time    0.00
    CHARGE:  cpu time    0.10: real time    0.10
    MIXING:  cpu time    0.02: real time    0.02
    --------------------------------------------
      LOOP:  cpu time    1.81: real time    1.83

 eigenvalue-minimisations  :   120
 total energy-change (2. order) :-0.2280680E-02  (-0.2031988E-03)
 number of electron      29.9999951 magnetization      -0.1115125
 augmentation part        0.6958465 magnetization      -0.0058159

 Broyden mixing:
  rms(total) = 0.63762E-02    rms(broyden)= 0.63657E-02
  rms(prec ) = 0.14264E-01
  weight for this iteration     100.00

 eigenvalues of (default mixing * dielectric matrix)
  average eigenvalue GAMMA=   1.3650
  2.8617  2.3030  1.2019  0.9528  0.8777  0.7327  0.6251

 Free energy of the ion-electron system (eV)
  ---------------------------------------------------
  alpha Z        PSCENC =        19.00520200
  Ewald energy   TEWEN  =       147.99488268
  -1/2 Hartree   DENC   =     -1002.84364970
  -exchange  EXHF       =         0.00000000
  -V(xc)+E(xc)   XCENC  =       102.85330453
  PAW double counting   =       454.89101759     -462.70596264
  entropy T*S    EENTRO =         0.02499760
  eigenvalues    EBANDS =      -290.45887043
  atomic energy  EATOM  =       957.23250565
  ---------------------------------------------------
  free energy    TOTEN  =       -74.00657272 eV

  energy without entropy =      -74.03157032  energy(sigma->0) =      -74.01490525


--------------------------------------------------------------------------------------------------------




----------------------------------------- Iteration    1(  13)  ---------------------------------------


    POTLOK:  cpu time    0.64: real time    0.64
    SETDIJ:  cpu time    0.12: real time    0.12
     EDDAV:  cpu time    0.92: real time    0.92
       DOS:  cpu time    0.00: real time    0.00
    CHARGE:  cpu time    0.10: real time    0.10
    MIXING:  cpu time    0.02: real time    0.02
    --------------------------------------------
      LOOP:  cpu time    1.81: real time    1.83

 eigenvalue-minimisations  :   120
 total energy-change (2. order) :-0.1288168E-02  (-0.4018183E-04)
 number of electron      29.9999951 magnetization      -0.1248477
 augmentation part        0.6957982 magnetization      -0.0118226

 Broyden mixing:
  rms(total) = 0.39081E-02    rms(broyden)= 0.39029E-02
  rms(prec ) = 0.74898E-02
  weight for this iteration     100.00

 eigenvalues of (default mixing * dielectric matrix)
  average eigenvalue GAMMA=   1.3841
  3.2138  2.3087  1.3273  1.0734  1.0247  0.8015  0.7078  0.6153

 Free energy of the ion-electron system (eV)
  ---------------------------------------------------
  alpha Z        PSCENC =        19.00520200
  Ewald energy   TEWEN  =       147.99488268
  -1/2 Hartree   DENC   =     -1003.12399631
  -exchange  EXHF       =         0.00000000
  -V(xc)+E(xc)   XCENC  =       102.86224827
  PAW double counting   =       454.55624673     -462.37095749
  entropy T*S    EENTRO =         0.02525955
  eigenvalues    EBANDS =      -290.18925197
  atomic energy  EATOM  =       957.23250565
  ---------------------------------------------------
  free energy    TOTEN  =       -74.00786088 eV

  energy without entropy =      -74.03312043  energy(sigma->0) =      -74.01628073


--------------------------------------------------------------------------------------------------------




----------------------------------------- Iteration    1(  14)  ---------------------------------------


    POTLOK:  cpu time    0.64: real time    0.65
    SETDIJ:  cpu time    0.13: real time    0.13
     EDDAV:  cpu time    1.04: real time    1.04
       DOS:  cpu time    0.00: real time    0.00
    CHARGE:  cpu time    0.12: real time    0.12
    MIXING:  cpu time    0.03: real time    0.03
    --------------------------------------------
      LOOP:  cpu time    1.96: real time    1.98

 eigenvalue-minimisations  :   112
 total energy-change (2. order) :-0.4709116E-03  (-0.1654541E-04)
 number of electron      29.9999951 magnetization      -0.1256206
 augmentation part        0.6957827 magnetization      -0.0090742

 Broyden mixing:
  rms(total) = 0.18340E-02    rms(broyden)= 0.18298E-02
  rms(prec ) = 0.32580E-02
  weight for this iteration     100.00

 eigenvalues of (default mixing * dielectric matrix)
  average eigenvalue GAMMA=   1.4374
  3.4277  2.4246  1.8743  1.1110  1.1110  0.9093  0.7734  0.6843  0.6212

 Free energy of the ion-electron system (eV)
  ---------------------------------------------------
  alpha Z        PSCENC =        19.00520200
  Ewald energy   TEWEN  =       147.99488268
  -1/2 Hartree   DENC   =     -1003.28340505
  -exchange  EXHF       =         0.00000000
  -V(xc)+E(xc)   XCENC  =       102.86530334
  PAW double counting   =       454.38657476     -462.20343024
  entropy T*S    EENTRO =         0.02539602
  eigenvalues    EBANDS =      -290.03136097
  atomic energy  EATOM  =       957.23250565
  ---------------------------------------------------
  free energy    TOTEN  =       -74.00833179 eV

  energy without entropy =      -74.03372782  energy(sigma->0) =      -74.01679714


--------------------------------------------------------------------------------------------------------




----------------------------------------- Iteration    1(  15)  ---------------------------------------


    POTLOK:  cpu time    0.72: real time    0.72
    SETDIJ:  cpu time    0.13: real time    0.13
     EDDAV:  cpu time    0.89: real time    0.89
       DOS:  cpu time    0.00: real time    0.00
    --------------------------------------------
      LOOP:  cpu time    1.74: real time    1.75

 eigenvalue-minimisations  :    88
 total energy-change (2. order) :-0.6031783E-04  (-0.3831309E-05)
 number of electron      29.9999951 magnetization      -0.1256206
 augmentation part        0.6957827 magnetization      -0.0090742

 Free energy of the ion-electron system (eV)
  ---------------------------------------------------
  alpha Z        PSCENC =        19.00520200
  Ewald energy   TEWEN  =       147.99488268
  -1/2 Hartree   DENC   =     -1003.33603736
  -exchange  EXHF       =         0.00000000
  -V(xc)+E(xc)   XCENC  =       102.86509111
  PAW double counting   =       454.37189386     -462.19004217
  entropy T*S    EENTRO =         0.02542606
  eigenvalues    EBANDS =      -289.97731394
  atomic energy  EATOM  =       957.23250565
  ---------------------------------------------------
  free energy    TOTEN  =       -74.00839211 eV

  energy without entropy =      -74.03381817  energy(sigma->0) =      -74.01686746


--------------------------------------------------------------------------------------------------------




 average (electrostatic) potential at core
  the test charge radii are     0.5201  0.6991
  (the norm of the test charge is              1.0000)
       1 -40.4898       2 -39.8885       3 -39.8885       4 -40.4898       5 -39.8885
       6 -39.8885       7 -56.1976       8 -56.2925       9 -56.2925      10 -56.1976
      11 -56.2925      12 -56.2925
 
 
 
 E-fermi :  -3.5747     XC(G=0):  -4.9843     alpha+bet : -3.5556


 spin component 1

 k-point   1 :       0.0000    0.0000    0.0000
  band No.  band energies     occupation 
      1     -18.8111      1.00000
      2     -15.8532      1.00000
      3     -15.7920      1.00000
      4     -13.4160      1.00000
      5     -12.1958      1.00000
      6     -11.4434      1.00000
      7      -9.2227      1.00000
      8      -8.4080      1.00000
      9      -7.1448      1.00000
     10      -7.0672      1.00000
     11      -6.6154      1.00000
     12      -6.2556      1.00000
     13      -5.1300      1.00000
     14      -3.7368      0.99275
     15      -3.7069      0.94554
     16       0.9004      0.00000
     17       1.2796      0.00000
     18       1.5103      0.00000
     19       2.5750      0.00000
     20       4.4021      0.00000
     21       4.6075      0.00000
     22       5.0400      0.00000
     23       5.0651      0.00000
     24       5.2203      0.00000
     25       6.1682      0.00000
     26       6.2542      0.00000
     27       6.8614      0.00000
     28       6.9383      0.00000

 spin component 2

 k-point   1 :       0.0000    0.0000    0.0000
  band No.  band energies     occupation 
      1     -18.8376      1.00000
      2     -15.8728      1.00000
      3     -15.8264      1.00000
      4     -13.4315      1.00000
      5     -12.2146      1.00000
      6     -11.4497      1.00000
      7      -9.2334      1.00000
      8      -8.4198      1.00000
      9      -7.1508      1.00000
     10      -7.0742      1.00000
     11      -6.6778      1.00000
     12      -6.2691      1.00000
     13      -5.1387      1.00000
     14      -3.7915      1.03181
     15      -3.7856      1.02990
     16       0.8323      0.00000
     17       1.2726      0.00000
     18       1.4565      0.00000
     19       2.5620      0.00000
     20       4.3936      0.00000
     21       4.5999      0.00000
     22       4.9804      0.00000
     23       5.0596      0.00000
     24       5.2093      0.00000
     25       6.1515      0.00000
     26       6.2366      0.00000
     27       6.8440      0.00000
     28       6.9302      0.00000


--------------------------------------------------------------------------------------------------------


 soft charge-density along one line, spin component           1
         0         1         2         3         4         5         6         7         8         9
 total charge-density along one line
 
 soft charge-density along one line, spin component           2
         0         1         2         3         4         5         6         7         8         9
 total charge-density along one line
 
 pseudopotential strength for first ion, spin component:           1
 -2.326  -0.009   0.001   0.000   0.000
 -0.009   0.049   0.001   0.000   0.000
  0.001   0.001  -0.333   0.000   0.000
  0.000   0.000   0.000  -0.340   0.000
  0.000   0.000   0.000   0.000  -0.340
 pseudopotential strength for first ion, spin component:           2
 -2.326  -0.009   0.001   0.000   0.000
 -0.009   0.049   0.001   0.000   0.000
  0.001   0.001  -0.333   0.000   0.000
  0.000   0.000   0.000  -0.340   0.000
  0.000   0.000   0.000   0.000  -0.340
 total augmentation occupancy for first ion, spin component:           1
  1.834  -0.663  -0.257   0.000   0.000
 -0.663   0.320   0.077   0.000   0.000
 -0.257   0.077   0.078   0.000   0.000
  0.000   0.000   0.000   0.009   0.000
  0.000   0.000   0.000   0.000   0.008
 total augmentation occupancy for first ion, spin component:           2
  0.001   0.000   0.000   0.000   0.000
  0.000   0.000   0.000   0.000   0.000
  0.000   0.000   0.000   0.000   0.000
  0.000   0.000   0.000   0.000   0.000
  0.000   0.000   0.000   0.000   0.000


------------------------ aborting loop because EDIFF is reached ----------------------------------------


    CHARGE:  cpu time    0.12: real time    0.12
    FORLOC:  cpu time    0.05: real time    0.05
    FORNL :  cpu time    0.37: real time    0.37
    STRESS:  cpu time    0.49: real time    0.49
    FORHAR:  cpu time    0.13: real time    0.13
    MIXING:  cpu time    0.03: real time    0.03

  FORCE on cell =-STRESS in cart. coord.  units (eV):
  Direction    XX          YY          ZZ          XY          YZ          ZX
  --------------------------------------------------------------------------------------
  Alpha Z    19.00520    19.00520    19.00520
  Ewald     621.36465   640.64317 -1114.01419     0.00000     0.00000     0.00000
  Hartree   687.07059   696.37005  -380.04642     0.00000     0.00000     0.00000
  E(xc)    -106.05450  -105.85979  -109.68894     0.00000     0.00000     0.00000
  Local   -1598.72420 -1621.15045  1145.43166     0.00000     0.00000     0.00000
  n-local   -41.09707   -40.57392   -36.74205     0.00000     0.00000     0.00000
  augment    -1.53053    -1.57892    -1.27063     0.00000     0.00000     0.00000
  Kinetic   421.44186   417.76657   474.81257     0.00004     0.00000     0.00000
  Fock        0.00000     0.00000     0.00000     0.00000     0.00000     0.00000
  -------------------------------------------------------------------------------------
  Total       1.47599     4.62191    -2.51279     0.00000     0.00000     0.00000
  in kB      10.94813    34.28299   -18.63860     0.00000     0.00000     0.00000
  external pressure =        8.86 kB  Pullay stress =        0.00 kB


 VOLUME and BASIS-vectors are now :
 -----------------------------------------------------------------------------
  energy-cutoff  :      350.00
  volume of cell :      216.00
      direct lattice vectors                 reciprocal lattice vectors
     6.000000000  0.000000000  0.000000000     0.166666667  0.000000000  0.000000000
     0.000000000  6.000000000  0.000000000     0.000000000  0.166666667  0.000000000
     0.000000000  0.000000000  6.000000000     0.000000000  0.000000000  0.166666667

  length of vectors
     6.000000000  6.000000000  6.000000000     0.166666667  0.166666667  0.166666667


 FORCES acting on ions
    electron-ion (+dipol)            ewald-force                    non-local-force                 convergence-correction
 -----------------------------------------------------------------------------------------------
   0.144E-13 -.367E+02 -.725E-06   -.666E-15 0.398E+02 0.655E-18   0.000E+00 -.493E+01 0.000E+00   -.101E-14 0.127E-02 -.241E-14
   -.448E+02 -.341E+02 0.141E-07   0.493E+02 0.368E+02 -.602E-17   -.501E+01 -.291E+01 0.517E-25   0.385E-04 0.549E-03 -.221E-14
   -.448E+02 0.341E+02 -.500E-06   0.493E+02 -.368E+02 -.460E-17   -.501E+01 0.291E+01 -.103E-24   0.385E-04 -.549E-03 -.288E-14
   0.155E-13 0.367E+02 0.725E-06   -.194E-14 -.398E+02 0.980E-17   0.000E+00 0.493E+01 0.000E+00   -.562E-15 -.127E-02 -.228E-14
   0.448E+02 0.341E+02 -.141E-07   -.493E+02 -.368E+02 0.143E-16   0.501E+01 0.291E+01 -.103E-24   -.385E-04 -.549E-03 -.361E-14
   0.448E+02 -.341E+02 0.500E-06   -.493E+02 0.368E+02 0.115E-16   0.501E+01 -.291E+01 0.103E-24   -.385E-04 0.549E-03 -.277E-14
   0.344E-13 -.114E+03 0.166E-05   -.355E-13 0.114E+03 0.224E-16   0.847E-21 -.217E+01 0.000E+00   -.491E-14 0.114E-01 -.203E-13
   -.107E+03 -.664E+02 0.677E-05   0.107E+03 0.664E+02 -.126E-15   -.335E+00 0.799E+00 0.620E-24   0.628E-02 0.526E-02 -.178E-13
   -.107E+03 0.664E+02 0.828E-05   0.107E+03 -.664E+02 0.238E-16   -.335E+00 -.799E+00 -.827E-24   0.628E-02 -.526E-02 -.223E-13
   0.337E-13 0.114E+03 -.166E-05   0.120E-13 -.114E+03 -.149E-16   -.847E-21 0.217E+01 0.000E+00   -.294E-14 -.114E-01 -.210E-13
   0.107E+03 0.664E+02 -.677E-05   -.107E+03 -.664E+02 -.479E-16   0.335E+00 -.799E+00 0.000E+00   -.628E-02 -.526E-02 -.265E-13
   0.107E+03 -.664E+02 -.828E-05   -.107E+03 0.664E+02 0.290E-16   0.335E+00 0.799E+00 0.000E+00   -.628E-02 0.526E-02 -.225E-13
 -----------------------------------------------------------------------------------------------
   -.156E-12 0.540E-12 -.679E-11   0.142E-13 -.284E-13 -.880E-16   0.000E+00 0.444E-15 -.258E-24   -.213E-13 -.409E-13 -.147E-12
 
 
 POSITION                                       TOTAL-FORCE (eV/Angst)
 -----------------------------------------------------------------------------------
      3.00000      5.48236      3.00000         0.000000     -1.878295      0.000000
      5.14979      4.24118      3.00000        -0.520703     -0.139500      0.000000
      5.14979      1.75882      3.00000        -0.520703      0.139500      0.000000
      3.00000      0.51764      3.00000         0.000000      1.878295      0.000000
      0.85021      1.75882      3.00000         0.520703      0.139500      0.000000
      0.85021      4.24118      3.00000         0.520703     -0.139500      0.000000
      3.00000      4.39525      3.00000         0.000000     -1.714660      0.000000
      4.20832      3.69762      3.00000        -0.352137      0.817845      0.000000
      4.20832      2.30238      3.00000        -0.352137     -0.817845      0.000000
      3.00000      1.60475      3.00000         0.000000      1.714660      0.000000
      1.79168      2.30238      3.00000         0.352137     -0.817845      0.000000
      1.79168      3.69762      3.00000         0.352137      0.817845      0.000000
 -----------------------------------------------------------------------------------
    total drift:                                0.000000      0.000000      0.000000


--------------------------------------------------------------------------------------------------------



  FREE ENERGIE OF THE ION-ELECTRON SYSTEM (eV)
  ---------------------------------------------------
  free  energy   TOTEN  =       -74.008392 eV

  energy  without entropy=      -74.033818  energy(sigma->0) =      -74.016867
 


--------------------------------------------------------------------------------------------------------


    POTLOK:  cpu time    0.84: real time    0.84


--------------------------------------------------------------------------------------------------------




--------------------------------------------------------------------------------------------------------


    WAVPRE:  cpu time    0.08: real time    0.08
    FEWALD:  cpu time    0.00: real time    0.00
    ORTHCH:  cpu time    0.06: real time    0.06
     LOOP+:  cpu time   27.92: real time   28.24


----------------------------------------- Iteration    2(   1)  ---------------------------------------


    POTLOK:  cpu time    0.71: real time    0.71
    SETDIJ:  cpu time    0.13: real time    0.13
     EDDAV:  cpu time    1.03: real time    1.03
       DOS:  cpu time    0.00: real time    0.00
    CHARGE:  cpu time    0.12: real time    0.12
    MIXING:  cpu time    0.02: real time    0.02
    --------------------------------------------
      LOOP:  cpu time    2.01: real time    2.01

 eigenvalue-minimisations  :   112
 total energy-change (2. order) : 0.2761017E+00  (-0.5634036E+01)
 number of electron      29.9999985 magnetization      -0.0611911
 augmentation part        0.7178267 magnetization      -0.0145146

 Broyden mixing:
  rms(total) = 0.17673E+00    rms(broyden)= 0.17651E+00
  rms(prec ) = 0.30692E+00
  weight for this iteration     100.00

 Free energy of the ion-electron system (eV)
  ---------------------------------------------------
  alpha Z        PSCENC =        19.00520200
  Ewald energy   TEWEN  =       180.25540137
  -1/2 Hartree   DENC   =     -1025.26825559
  -exchange  EXHF       =         0.00000000
  -V(xc)+E(xc)   XCENC  =       103.45259852
  PAW double counting   =       454.41919366     -462.23798608
  entropy T*S    EENTRO =         0.01216907
  eigenvalues    EBANDS =      -300.60305868
  atomic energy  EATOM  =       957.23250565
  ---------------------------------------------------
  free energy    TOTEN  =       -73.73223008 eV

  energy without entropy =      -73.74439915  energy(sigma->0) =      -73.73628644


--------------------------------------------------------------------------------------------------------




----------------------------------------- Iteration    2(   2)  ---------------------------------------


    POTLOK:  cpu time    0.73: real time    0.73
    SETDIJ:  cpu time    0.13: real time    0.13
     EDDAV:  cpu time    1.09: real time    1.09
       DOS:  cpu time    0.00: real time    0.00
    CHARGE:  cpu time    0.12: real time    0.12
    MIXING:  cpu time    0.02: real time    0.02
    --------------------------------------------
      LOOP:  cpu time    2.09: real time    2.09

 eigenvalue-minimisations  :   120
 total energy-change (2. order) :-0.2489433E-01  (-0.1192576E+00)
 number of electron      29.9999985 magnetization      -0.0317598
 augmentation part        0.7260114 magnetization       0.0058588

 Broyden mixing:
  rms(total) = 0.12641E+00    rms(broyden)= 0.12633E+00
  rms(prec ) = 0.19841E+00
  weight for this iteration     100.00

 eigenvalues of (default mixing * dielectric matrix)
  average eigenvalue GAMMA=   1.5428
  1.5428

 Free energy of the ion-electron system (eV)
  ---------------------------------------------------
  alpha Z        PSCENC =        19.00520200
  Ewald energy   TEWEN  =       180.25540137
  -1/2 Hartree   DENC   =     -1028.36252033
  -exchange  EXHF       =         0.00000000
  -V(xc)+E(xc)   XCENC  =       103.57112649
  PAW double counting   =       465.36499825     -473.21999431
  entropy T*S    EENTRO =         0.01196020
  eigenvalues    EBANDS =      -297.61580373
  atomic energy  EATOM  =       957.23250565
  ---------------------------------------------------
  free energy    TOTEN  =       -73.75712441 eV

  energy without entropy =      -73.76908462  energy(sigma->0) =      -73.76111115


--------------------------------------------------------------------------------------------------------




----------------------------------------- Iteration    2(   3)  ---------------------------------------


    POTLOK:  cpu time    0.72: real time    0.72
    SETDIJ:  cpu time    0.13: real time    0.13
     EDDAV:  cpu time    1.11: real time    1.11
       DOS:  cpu time    0.00: real time    0.00
    CHARGE:  cpu time    0.12: real time    0.12
    MIXING:  cpu time    0.02: real time    0.02
    --------------------------------------------
      LOOP:  cpu time    2.10: real time    2.11

 eigenvalue-minimisations  :   124
 total energy-change (2. order) : 0.2698955E-01  (-0.1580031E-01)
 number of electron      29.9999985 magnetization      -0.0392758
 augmentation part        0.7217138 magnetization      -0.0047984

 Broyden mixing:
  rms(total) = 0.38345E-01    rms(broyden)= 0.38304E-01
  rms(prec ) = 0.61593E-01
  weight for this iteration     100.00

 eigenvalues of (default mixing * dielectric matrix)
  average eigenvalue GAMMA=   1.3708
  1.1159  1.6256

 Free energy of the ion-electron system (eV)
  ---------------------------------------------------
  alpha Z        PSCENC =        19.00520200
  Ewald energy   TEWEN  =       180.25540137
  -1/2 Hartree   DENC   =     -1032.26379168
  -exchange  EXHF       =         0.00000000
  -V(xc)+E(xc)   XCENC  =       103.73932194
  PAW double counting   =       477.40216735     -485.33237433
  entropy T*S    EENTRO =         0.01190251
  eigenvalues    EBANDS =      -293.78046967
  atomic energy  EATOM  =       957.23250565
  ---------------------------------------------------
  free energy    TOTEN  =       -73.73013486 eV

  energy without entropy =      -73.74203738  energy(sigma->0) =      -73.73410237


--------------------------------------------------------------------------------------------------------




----------------------------------------- Iteration    2(   4)  ---------------------------------------


    POTLOK:  cpu time    0.73: real time    0.73
    SETDIJ:  cpu time    0.13: real time    0.13
     EDDAV:  cpu time    1.09: real time    1.09
       DOS:  cpu time    0.00: real time    0.00
    CHARGE:  cpu time    0.12: real time    0.12
    MIXING:  cpu time    0.02: real time    0.02
    --------------------------------------------
      LOOP:  cpu time    2.08: real time    2.10

 eigenvalue-minimisations  :   120
 total energy-change (2. order) : 0.4314685E-03  (-0.2110086E-02)
 number of electron      29.9999985 magnetization      -0.0294416
 augmentation part        0.7216629 magnetization       0.0017948

 Broyden mixing:
  rms(total) = 0.25748E-01    rms(broyden)= 0.25747E-01
  rms(prec ) = 0.36200E-01
  weight for this iteration     100.00

 eigenvalues of (default mixing * dielectric matrix)
  average eigenvalue GAMMA=   1.4356
  2.0735  1.0285  1.2047

 Free energy of the ion-electron system (eV)
  ---------------------------------------------------
  alpha Z        PSCENC =        19.00520200
  Ewald energy   TEWEN  =       180.25540137
  -1/2 Hartree   DENC   =     -1031.58727283
  -exchange  EXHF       =         0.00000000
  -V(xc)+E(xc)   XCENC  =       103.71818868
  PAW double counting   =       477.06787835     -484.99023667
  entropy T*S    EENTRO =         0.01184584
  eigenvalues    EBANDS =      -294.44321578
  atomic energy  EATOM  =       957.23250565
  ---------------------------------------------------
  free energy    TOTEN  =       -73.72970340 eV

  energy without entropy =      -73.74154923  energy(sigma->0) =      -73.73365201


--------------------------------------------------------------------------------------------------------




----------------------------------------- Iteration    2(   5)  ---------------------------------------


    POTLOK:  cpu time    0.72: real time    0.72
    SETDIJ:  cpu time    0.13: real time    0.13
     EDDAV:  cpu time    1.03: real time    1.03
       DOS:  cpu time    0.00: real time    0.00
    CHARGE:  cpu time    0.12: real time    0.12
    MIXING:  cpu time    0.02: real time    0.02
    --------------------------------------------
      LOOP:  cpu time    2.02: real time    2.04

 eigenvalue-minimisations  :   112
 total energy-change (2. order) : 0.1900985E-03  (-0.3206049E-03)
 number of electron      29.9999985 magnetization      -0.0292038
 augmentation part        0.7209705 magnetization      -0.0010194

 Broyden mixing:
  rms(total) = 0.50625E-02    rms(broyden)= 0.50573E-02
  rms(prec ) = 0.90313E-02
  weight for this iteration     100.00

 eigenvalues of (default mixing * dielectric matrix)
  average eigenvalue GAMMA=   1.3570
  2.4075  1.1367  1.1367  0.7470

 Free energy of the ion-electron system (eV)
  ---------------------------------------------------
  alpha Z        PSCENC =        19.00520200
  Ewald energy   TEWEN  =       180.25540137
  -1/2 Hartree   DENC   =     -1032.18824259
  -exchange  EXHF       =         0.00000000
  -V(xc)+E(xc)   XCENC  =       103.74994498
  PAW double counting   =       480.27087218     -488.20471020
  entropy T*S    EENTRO =         0.01179832
  eigenvalues    EBANDS =      -293.86228502
  atomic energy  EATOM  =       957.23250565
  ---------------------------------------------------
  free energy    TOTEN  =       -73.72951330 eV

  energy without entropy =      -73.74131162  energy(sigma->0) =      -73.73344607


--------------------------------------------------------------------------------------------------------




----------------------------------------- Iteration    2(   6)  ---------------------------------------


    POTLOK:  cpu time    0.74: real time    0.74
    SETDIJ:  cpu time    0.13: real time    0.13
     EDDAV:  cpu time    1.03: real time    1.03
       DOS:  cpu time    0.00: real time    0.00
    --------------------------------------------
      LOOP:  cpu time    1.89: real time    1.91

 eigenvalue-minimisations  :   112
 total energy-change (2. order) : 0.9350471E-05  (-0.3961543E-04)
 number of electron      29.9999985 magnetization      -0.0292038
 augmentation part        0.7209705 magnetization      -0.0010194

 Free energy of the ion-electron system (eV)
  ---------------------------------------------------
  alpha Z        PSCENC =        19.00520200
  Ewald energy   TEWEN  =       180.25540137
  -1/2 Hartree   DENC   =     -1032.16194826
  -exchange  EXHF       =         0.00000000
  -V(xc)+E(xc)   XCENC  =       103.74786396
  PAW double counting   =       480.24165033     -488.17442211
  entropy T*S    EENTRO =         0.01177688
  eigenvalues    EBANDS =      -293.88753376
  atomic energy  EATOM  =       957.23250565
  ---------------------------------------------------
  free energy    TOTEN  =       -73.72950395 eV

  energy without entropy =      -73.74128082  energy(sigma->0) =      -73.73342957


--------------------------------------------------------------------------------------------------------




 average (electrostatic) potential at core
  the test charge radii are     0.5201  0.6991
  (the norm of the test charge is              1.0000)
       1 -39.8776       2 -40.2224       3 -40.2224       4 -39.8776       5 -40.2224
       6 -40.2224       7 -56.0606       8 -56.2654       9 -56.2654      10 -56.0606
      11 -56.2654      12 -56.2654
 
 
 
 E-fermi :  -3.3606     XC(G=0):  -4.9585     alpha+bet : -3.5556


 spin component 1

 k-point   1 :       0.0000    0.0000    0.0000
  band No.  band energies     occupation 
      1     -19.1393      1.00000
      2     -16.3445      1.00000
      3     -15.8191      1.00000
      4     -12.8308      1.00000
      5     -12.7883      1.00000
      6     -11.5480      1.00000
      7      -9.5815      1.00000
      8      -8.5747      1.00000
      9      -7.2434      1.00000
     10      -6.8750      1.00000
     11      -6.3817      1.00000
     12      -6.1198      1.00000
     13      -5.9131      1.00000
     14      -4.2225      1.00000
     15      -3.5175      0.98599
     16       1.0346      0.00000
     17       1.2496      0.00000
     18       1.5538      0.00000
     19       2.6415      0.00000
     20       4.3921      0.00000
     21       4.5807      0.00000
     22       5.1319      0.00000
     23       5.2338      0.00000
     24       5.2568      0.00000
     25       6.1155      0.00000
     26       6.2562      0.00000
     27       7.0619      0.00000
     28       7.1735      0.00000

 spin component 2

 k-point   1 :       0.0000    0.0000    0.0000
  band No.  band energies     occupation 
      1     -19.1447      1.00000
      2     -16.3469      1.00000
      3     -15.8293      1.00000
      4     -12.8340      1.00000
      5     -12.7944      1.00000
      6     -11.5492      1.00000
      7      -9.5836      1.00000
      8      -8.5777      1.00000
      9      -7.2471      1.00000
     10      -6.8886      1.00000
     11      -6.3822      1.00000
     12      -6.1216      1.00000
     13      -5.9162      1.00000
     14      -4.2289      1.00000
     15      -3.5437      1.01401
     16       1.0104      0.00000
     17       1.2469      0.00000
     18       1.5464      0.00000
     19       2.6376      0.00000
     20       4.3887      0.00000
     21       4.5776      0.00000
     22       5.1278      0.00000
     23       5.2306      0.00000
     24       5.2463      0.00000
     25       6.1145      0.00000
     26       6.2529      0.00000
     27       7.0596      0.00000
     28       7.1665      0.00000


--------------------------------------------------------------------------------------------------------


 soft charge-density along one line, spin component           1
         0         1         2         3         4         5         6         7         8         9
 total charge-density along one line
 
 soft charge-density along one line, spin component           2
         0         1         2         3         4         5         6         7         8         9
 total charge-density along one line
 
 pseudopotential strength for first ion, spin component:           1
 -2.317  -0.008   0.002   0.000   0.000
 -0.008   0.049   0.002   0.000   0.000
  0.002   0.002  -0.336   0.000   0.000
  0.000   0.000   0.000  -0.342   0.000
  0.000   0.000   0.000   0.000  -0.342
 pseudopotential strength for first ion, spin component:           2
 -2.317  -0.008   0.002   0.000   0.000
 -0.008   0.049   0.002   0.000   0.000
  0.002   0.002  -0.336   0.000   0.000
  0.000   0.000   0.000  -0.342   0.000
  0.000   0.000   0.000   0.000  -0.342
 total augmentation occupancy for first ion, spin component:           1
  1.830  -0.647  -0.277   0.000   0.000
 -0.647   0.308   0.100   0.000   0.000
 -0.277   0.100   0.068   0.000   0.000
  0.000   0.000   0.000   0.010   0.000
  0.000   0.000   0.000   0.000   0.008
 total augmentation occupancy for first ion, spin component:           2
  0.000   0.000   0.000   0.000   0.000
  0.000   0.000   0.000   0.000   0.000
  0.000   0.000   0.000   0.000   0.000
  0.000   0.000   0.000   0.000   0.000
  0.000   0.000   0.000   0.000   0.000


------------------------ aborting loop because EDIFF is reached ----------------------------------------


    CHARGE:  cpu time    0.12: real time    0.12
    FORLOC:  cpu time    0.05: real time    0.05
    FORNL :  cpu time    0.36: real time    0.36
    STRESS:  cpu time    0.47: real time    0.47
    FORHAR:  cpu time    0.12: real time    0.13
    MIXING:  cpu time    0.02: real time    0.02

  FORCE on cell =-STRESS in cart. coord.  units (eV):
  Direction    XX          YY          ZZ          XY          YZ          ZX
  --------------------------------------------------------------------------------------
  Alpha Z    19.00520    19.00520    19.00520
  Ewald     703.89718   589.32568 -1112.96869     0.00000     0.00000     0.00000
  Hartree   706.52813   696.31526  -370.90271     0.00000     0.00000     0.00000
  E(xc)    -106.74023  -107.03588  -110.61003     0.00000     0.00000     0.00000
  Local   -1682.97260 -1580.70898  1132.43890     0.00000     0.00000     0.00000
  n-local   -42.10867   -42.48588   -37.85576     0.00000     0.00000     0.00000
  augment    -1.81705    -1.61347    -1.34446     0.00000     0.00000     0.00000
  Kinetic   420.12083   432.45458   479.54155     0.00000     0.00000     0.00000
  Fock        0.00000     0.00000     0.00000     0.00000     0.00000     0.00000
  -------------------------------------------------------------------------------------
  Total      15.91280     5.25652    -2.69599     0.00000     0.00000     0.00000
  in kB     118.03300    38.99017   -19.99744     0.00000     0.00000     0.00000
  external pressure =       45.68 kB  Pullay stress =        0.00 kB


 VOLUME and BASIS-vectors are now :
 -----------------------------------------------------------------------------
  energy-cutoff  :      350.00
  volume of cell :      216.00
      direct lattice vectors                 reciprocal lattice vectors
     6.000000000  0.000000000  0.000000000     0.166666667  0.000000000  0.000000000
     0.000000000  6.000000000  0.000000000     0.000000000  0.166666667  0.000000000
     0.000000000  0.000000000  6.000000000     0.000000000  0.000000000  0.166666667

  length of vectors
     6.000000000  6.000000000  6.000000000     0.166666667  0.166666667  0.166666667


 FORCES acting on ions
    electron-ion (+dipol)            ewald-force                    non-local-force                 convergence-correction
 -----------------------------------------------------------------------------------------------
   0.159E-13 -.444E+02 -.792E-06   -.200E-14 0.498E+02 -.435E-16   -.414E-24 -.532E+01 0.000E+00   0.536E-15 -.129E-01 -.495E-13
   -.479E+02 -.334E+02 0.704E-06   0.538E+02 0.370E+02 0.484E-17   -.556E+01 -.288E+01 0.000E+00   -.953E-02 -.440E-02 -.573E-13
   -.479E+02 0.334E+02 0.566E-06   0.538E+02 -.370E+02 -.101E-16   -.556E+01 0.288E+01 0.000E+00   -.953E-02 0.440E-02 -.553E-13
   0.152E-13 0.444E+02 0.792E-06   0.117E-14 -.498E+02 -.240E-16   0.124E-23 0.532E+01 0.000E+00   0.109E-14 0.129E-01 -.488E-13
   0.479E+02 0.334E+02 -.704E-06   -.538E+02 -.370E+02 -.102E-16   0.556E+01 0.288E+01 0.162E-26   0.953E-02 0.440E-02 -.479E-13
   0.479E+02 -.334E+02 -.566E-06   -.538E+02 0.370E+02 0.473E-17   0.556E+01 -.288E+01 -.162E-26   0.953E-02 -.440E-02 -.485E-13
   0.327E-13 -.120E+03 0.113E-04   -.473E-13 0.122E+03 -.399E-16   0.000E+00 0.708E+00 0.000E+00   -.142E-13 -.622E-01 -.288E-12
   -.123E+03 -.590E+02 0.123E-05   0.124E+03 0.558E+02 0.381E-16   -.750E-01 -.121E+01 0.000E+00   -.377E-01 0.452E-03 -.331E-12
   -.123E+03 0.590E+02 0.111E-04   0.124E+03 -.558E+02 0.795E-18   -.750E-01 0.121E+01 0.000E+00   -.377E-01 -.452E-03 -.324E-12
   0.343E-13 0.120E+03 -.113E-04   0.144E-13 -.122E+03 -.164E-16   0.000E+00 -.708E+00 0.000E+00   -.114E-13 0.622E-01 -.282E-12
   0.123E+03 0.590E+02 -.123E-05   -.124E+03 -.558E+02 0.396E-16   0.750E-01 0.121E+01 0.000E+00   0.377E-01 -.452E-03 -.272E-12
   0.123E+03 -.590E+02 -.111E-04   -.124E+03 0.558E+02 -.321E-16   0.750E-01 -.121E+01 0.000E+00   0.377E-01 0.452E-03 -.271E-12
 -----------------------------------------------------------------------------------------------
   0.711E-13 0.362E-12 0.174E-10   0.284E-13 -.213E-13 -.880E-16   0.265E-14 -.444E-15 0.000E+00   -.481E-13 -.160E-13 -.208E-11
 
 
 POSITION                                       TOTAL-FORCE (eV/Angst)
 -----------------------------------------------------------------------------------
      3.00000      5.39175      3.00000         0.000000      0.031315      0.000000
      5.12467      4.23445      3.00000         0.347541      0.636594      0.000000
      5.12467      1.76555      3.00000         0.347541     -0.636594      0.000000
      3.00000      0.60825      3.00000         0.000000     -0.031315      0.000000
      0.87533      1.76555      3.00000        -0.347541     -0.636594      0.000000
      0.87533      4.23445      3.00000        -0.347541      0.636594      0.000000
      3.00000      4.31253      3.00000         0.000000      3.262695      0.000000
      4.19133      3.73708      3.00000         1.583358     -4.463937      0.000000
      4.19133      2.26292      3.00000         1.583358      4.463937      0.000000
      3.00000      1.68747      3.00000         0.000000     -3.262695      0.000000
      1.80867      2.26292      3.00000        -1.583358      4.463937      0.000000
      1.80867      3.73708      3.00000        -1.583358     -4.463937      0.000000
 -----------------------------------------------------------------------------------
    total drift:                                0.000000      0.000000      0.000000


--------------------------------------------------------------------------------------------------------



  FREE ENERGIE OF THE ION-ELECTRON SYSTEM (eV)
  ---------------------------------------------------
  free  energy   TOTEN  =       -73.729504 eV

  energy  without entropy=      -73.741281  energy(sigma->0) =      -73.733430
 
 d Force =-0.2882271E+00[-0.141E+01, 0.833E+00]  d Energy =-0.2788882E+00-0.934E-02
 d Force =-0.3210891E+02[-0.353E+02,-0.289E+02]  d Ewald  =-0.3226052E+02 0.152E+00


--------------------------------------------------------------------------------------------------------


    POTLOK:  cpu time    0.83: real time    0.83


--------------------------------------------------------------------------------------------------------


 Steepest descent step on ions:
 trial-energy change:    0.278888  1 .order    0.288227   -0.833149    1.409603
  (g-gl).g = 0.833E+00      g.g   = 0.833E+00  gl.gl    = 0.000E+00
 g(Force)  = 0.833E+00   g(Stress)= 0.000E+00 ortho     = 0.000E+00
 gamma     =   0.00000
 trial     =   1.00000
 opt step  =   0.37736  (harmonic =   0.37149) maximal distance =0.03419366
 next E    =   -74.166090   (d E  =  -0.15770)


--------------------------------------------------------------------------------------------------------


    WAVPRE:  cpu time    0.07: real time    0.07
    FEWALD:  cpu time    0.00: real time    0.00
    ORTHCH:  cpu time    0.06: real time    0.06
     LOOP+:  cpu time   14.45: real time   14.54


----------------------------------------- Iteration    3(   1)  ---------------------------------------


    POTLOK:  cpu time    0.70: real time    0.70
    SETDIJ:  cpu time    0.13: real time    0.13
     EDDAV:  cpu time    1.00: real time    1.00
       DOS:  cpu time    0.00: real time    0.00
    CHARGE:  cpu time    0.12: real time    0.12
    MIXING:  cpu time    0.02: real time    0.02
    --------------------------------------------
      LOOP:  cpu time    1.96: real time    1.96

 eigenvalue-minimisations  :   112
 total energy-change (2. order) :-0.4523096E+00  (-0.2195153E+01)
 number of electron      29.9999934 magnetization      -0.0370426
 augmentation part        0.7027891 magnetization       0.0000421

 Broyden mixing:
  rms(total) = 0.11400E+00    rms(broyden)= 0.11385E+00
  rms(prec ) = 0.18995E+00
  weight for this iteration     100.00

 Free energy of the ion-electron system (eV)
  ---------------------------------------------------
  alpha Z        PSCENC =        19.00520200
  Ewald energy   TEWEN  =       159.40475497
  -1/2 Hartree   DENC   =     -1017.82323330
  -exchange  EXHF       =         0.00000000
  -V(xc)+E(xc)   XCENC  =       103.35066458
  PAW double counting   =       479.92780270     -487.85660937
  entropy T*S    EENTRO =         0.02591708
  eigenvalues    EBANDS =      -287.44882723
  atomic energy  EATOM  =       957.23250565
  ---------------------------------------------------
  free energy    TOTEN  =       -74.18182291 eV

  energy without entropy =      -74.20773999  energy(sigma->0) =      -74.19046194


--------------------------------------------------------------------------------------------------------




----------------------------------------- Iteration    3(   2)  ---------------------------------------


    POTLOK:  cpu time    0.72: real time    0.72
    SETDIJ:  cpu time    0.13: real time    0.13
     EDDAV:  cpu time    1.17: real time    1.18
       DOS:  cpu time    0.00: real time    0.00
    CHARGE:  cpu time    0.12: real time    0.12
[...]

  length of vectors
     6.000000000  6.000000000  6.000000000     0.166666667  0.166666667  0.166666667


 FORCES acting on ions
    electron-ion (+dipol)            ewald-force                    non-local-force                 convergence-correction
 -----------------------------------------------------------------------------------------------
   0.159E-13 -.447E+02 -.626E-06   0.494E-14 0.505E+02 -.713E-17   0.808E-27 -.573E+01 -.202E-27   -.230E-13 -.111E-02 -.440E-13
   -.453E+02 -.363E+02 0.986E-06   0.502E+02 0.396E+02 0.186E-16   -.502E+01 -.323E+01 0.101E-27   -.435E-03 -.156E-02 -.114E-12
   -.453E+02 0.363E+02 0.320E-06   0.502E+02 -.396E+02 0.126E-16   -.502E+01 0.323E+01 -.101E-27   -.435E-03 0.156E-02 -.118E-12
   0.160E-13 0.447E+02 0.626E-06   0.444E-15 -.505E+02 -.374E-17   -.404E-27 0.573E+01 0.101E-27   0.579E-13 0.111E-02 -.272E-13
   0.453E+02 0.363E+02 -.986E-06   -.502E+02 -.396E+02 0.108E-16   0.502E+01 0.323E+01 -.101E-27   0.435E-03 0.156E-02 0.177E-13
   0.453E+02 -.363E+02 -.320E-06   -.502E+02 0.396E+02 0.111E-16   0.502E+01 -.323E+01 0.101E-27   0.435E-03 -.156E-02 0.140E-13
   0.333E-13 -.117E+03 0.100E-04   0.318E-13 0.118E+03 -.201E-16   0.000E+00 -.634E+00 0.000E+00   -.328E-12 -.245E-01 -.261E-12
   -.114E+03 -.696E+02 0.730E-05   0.115E+03 0.692E+02 -.610E-16   -.701E+00 0.470E+00 0.000E+00   -.143E-01 -.146E-01 -.763E-12
   -.114E+03 0.696E+02 0.436E-05   0.115E+03 -.692E+02 0.341E-17   -.701E+00 -.470E+00 0.000E+00   -.143E-01 0.146E-01 -.763E-12
   0.334E-13 0.117E+03 -.100E-04   -.113E-13 -.118E+03 -.359E-16   0.000E+00 0.634E+00 0.000E+00   0.277E-12 0.245E-01 -.163E-12
   0.114E+03 0.696E+02 -.730E-05   -.115E+03 -.692E+02 -.329E-16   0.701E+00 -.470E+00 0.000E+00   0.143E-01 0.146E-01 0.255E-12
   0.114E+03 -.696E+02 -.436E-05   -.115E+03 0.692E+02 0.163E-16   0.701E+00 0.470E+00 0.000E+00   0.143E-01 -.146E-01 0.214E-12
 -----------------------------------------------------------------------------------------------
   0.142E-13 0.242E-12 -.254E-11   0.284E-13 0.142E-13 -.880E-16   0.111E-15 0.178E-14 -.101E-27   -.313E-14 -.923E-12 -.175E-11
 
 
 POSITION                                       TOTAL-FORCE (eV/Angst)
 -----------------------------------------------------------------------------------
      3.00000      5.39069      3.00000         0.000000      0.075687      0.000000
      5.12301      4.27295      3.00000        -0.029604      0.031044      0.000000
      5.12301      1.72705      3.00000        -0.029604     -0.031044      0.000000
      3.00000      0.60931      3.00000         0.000000     -0.075687      0.000000
      0.87699      1.72705      3.00000         0.029604     -0.031044      0.000000
      0.87699      4.27295      3.00000         0.029604      0.031044      0.000000
      3.00000      4.32742      3.00000         0.000000      0.051668      0.000000
      4.21708      3.69397      3.00000        -0.033693      0.023023      0.000000
      4.21708      2.30603      3.00000        -0.033693     -0.023023      0.000000
      3.00000      1.67258      3.00000         0.000000     -0.051668      0.000000
      1.78292      2.30603      3.00000         0.033693     -0.023023      0.000000
      1.78292      3.69397      3.00000         0.033693      0.023023      0.000000
 -----------------------------------------------------------------------------------
    total drift:                                0.000000      0.000000      0.000000


--------------------------------------------------------------------------------------------------------



  FREE ENERGIE OF THE ION-ELECTRON SYSTEM (eV)
  ---------------------------------------------------
  free  energy   TOTEN  =       -74.281933 eV

  energy  without entropy=      -74.308431  energy(sigma->0) =      -74.290766
 
 d Force = 0.6939977E-03[ 0.498E-03, 0.890E-03]  d Energy = 0.6845817E-03 0.942E-05
 d Force = 0.6039263E+00[ 0.603E+00, 0.605E+00]  d Ewald  = 0.6039264E+00-0.100E-06


--------------------------------------------------------------------------------------------------------


    POTLOK:  cpu time    0.84: real time    0.84


--------------------------------------------------------------------------------------------------------


 Conjugate gradient step on ions:
 trial-energy change:   -0.000685  1 .order   -0.000694   -0.000890   -0.000498
  (g-gl).g = 0.207E-02      g.g   = 0.319E-02  gl.gl    = 0.214E-01
 g(Force)  = 0.319E-02   g(Stress)= 0.000E+00 ortho     = 0.372E-03
 gamma     =   0.09680
 trial     =   0.27581
 opt step  =   0.62586  (harmonic =   0.62586) maximal distance =0.00383629
 next E    =   -74.282258   (d E  =  -0.00101)


--------------------------------------------------------------------------------------------------------


    WAVPRE:  cpu time    0.07: real time    0.07
    FEWALD:  cpu time    0.00: real time    0.00
    ORTHCH:  cpu time    0.06: real time    0.06
     LOOP+:  cpu time    6.08: real time    6.12


----------------------------------------- Iteration   13(   1)  ---------------------------------------


    POTLOK:  cpu time    0.70: real time    0.70
    SETDIJ:  cpu time    0.13: real time    0.13
     EDDAV:  cpu time    1.00: real time    1.00
       DOS:  cpu time    0.00: real time    0.00
    CHARGE:  cpu time    0.12: real time    0.12
    MIXING:  cpu time    0.01: real time    0.02
    --------------------------------------------
      LOOP:  cpu time    1.96: real time    1.96

 eigenvalue-minimisations  :   112
 total energy-change (2. order) :-0.3204829E-03  (-0.3440641E-02)
 number of electron      29.9999924 magnetization      -0.1273861
 augmentation part        0.7140809 magnetization      -0.0070104

 Broyden mixing:
  rms(total) = 0.73517E-02    rms(broyden)= 0.73389E-02
  rms(prec ) = 0.13232E-01
  weight for this iteration     100.00

 Free energy of the ion-electron system (eV)
  ---------------------------------------------------
  alpha Z        PSCENC =        19.00520200
  Ewald energy   TEWEN  =       168.88072881
  -1/2 Hartree   DENC   =     -1023.03147205
  -exchange  EXHF       =         0.00000000
  -V(xc)+E(xc)   XCENC  =       103.43881228
  PAW double counting   =       470.15312127     -478.04275281
  entropy T*S    EENTRO =         0.02586155
  eigenvalues    EBANDS =      -291.94432675
  atomic energy  EATOM  =       957.23250565
  ---------------------------------------------------
  free energy    TOTEN  =       -74.28232005 eV

  energy without entropy =      -74.30818160  energy(sigma->0) =      -74.29094057


--------------------------------------------------------------------------------------------------------




----------------------------------------- Iteration   13(   2)  ---------------------------------------


    POTLOK:  cpu time    0.70: real time    0.70
    SETDIJ:  cpu time    0.13: real time    0.13
     EDDAV:  cpu time    1.10: real time    1.10
       DOS:  cpu time    0.00: real time    0.00
    --------------------------------------------
      LOOP:  cpu time    1.93: real time    1.94

 eigenvalue-minimisations  :   128
 total energy-change (2. order) : 0.7249845E-04  (-0.7303322E-04)
 number of electron      29.9999924 magnetization      -0.1273861
 augmentation part        0.7140809 magnetization      -0.0070104

 Free energy of the ion-electron system (eV)
  ---------------------------------------------------
  alpha Z        PSCENC =        19.00520200
  Ewald energy   TEWEN  =       168.88072881
  -1/2 Hartree   DENC   =     -1022.96750746
  -exchange  EXHF       =         0.00000000
  -V(xc)+E(xc)   XCENC  =       103.43695552
  PAW double counting   =       469.96921685     -477.85801940
  entropy T*S    EENTRO =         0.02601449
  eigenvalues    EBANDS =      -292.00734402
  atomic energy  EATOM  =       957.23250565
  ---------------------------------------------------
  free energy    TOTEN  =       -74.28224756 eV

  energy without entropy =      -74.30826204  energy(sigma->0) =      -74.29091905


--------------------------------------------------------------------------------------------------------




 average (electrostatic) potential at core
  the test charge radii are     0.5201  0.6991
  (the norm of the test charge is              1.0000)
       1 -40.1733       2 -39.9804       3 -39.9804       4 -40.1733       5 -39.9804
       6 -39.9804       7 -56.0944       8 -56.2357       9 -56.2357      10 -56.0944
      11 -56.2357      12 -56.2357
 
 
 
 E-fermi :  -3.6327     XC(G=0):  -4.9493     alpha+bet : -3.5556


 spin component 1

 k-point   1 :       0.0000    0.0000    0.0000
  band No.  band energies     occupation 
      1     -19.0138      1.00000
      2     -16.0116      1.00000
      3     -15.9373      1.00000
      4     -13.0586      1.00000
      5     -12.4318      1.00000
      6     -11.4286      1.00000
      7      -9.2752      1.00000
      8      -8.4728      1.00000
      9      -7.4532      1.00000
     10      -6.7553      1.00000
     11      -6.6035      1.00000
     12      -6.4254      1.00000
     13      -5.3780      1.00000
     14      -3.8046      1.00374
     15      -3.7584      0.93256
     16       1.1529      0.00000
     17       1.2460      0.00000
     18       1.4829      0.00000
     19       2.6141      0.00000
     20       4.3806      0.00000
     21       4.7258      0.00000
     22       5.1019      0.00000
     23       5.1848      0.00000
     24       5.2723      0.00000
     25       6.1831      0.00000
     26       6.3493      0.00000
     27       7.0018      0.00000
     28       7.0492      0.00000

 spin component 2

 k-point   1 :       0.0000    0.0000    0.0000
  band No.  band energies     occupation 
      1     -19.0414      1.00000
      2     -16.0290      1.00000
      3     -15.9754      1.00000
      4     -13.0768      1.00000
      5     -12.4504      1.00000
      6     -11.4345      1.00000
      7      -9.2863      1.00000
      8      -8.4847      1.00000
      9      -7.4581      1.00000
     10      -6.8202      1.00000
     11      -6.6097      1.00000
     12      -6.4404      1.00000
     13      -5.3869      1.00000
     14      -3.8525      1.03259
     15      -3.8472      1.03112
     16       1.0791      0.00000
     17       1.2470      0.00000
     18       1.4333      0.00000
     19       2.6060      0.00000
     20       4.3717      0.00000
     21       4.7202      0.00000
     22       5.1008      0.00000
     23       5.1248      0.00000
     24       5.2677      0.00000
     25       6.1905      0.00000
     26       6.3348      0.00000
     27       7.0023      0.00000
     28       7.0409      0.00000


--------------------------------------------------------------------------------------------------------


 soft charge-density along one line, spin component           1
         0         1         2         3         4         5         6         7         8         9
 total charge-density along one line
 
 soft charge-density along one line, spin component           2
         0         1         2         3         4         5         6         7         8         9
 total charge-density along one line
 
 pseudopotential strength for first ion, spin component:           1
 -2.321  -0.008   0.002   0.000   0.000
 -0.008   0.049   0.002   0.000   0.000
  0.002   0.002  -0.334   0.000   0.000
  0.000   0.000   0.000  -0.341   0.000
  0.000   0.000   0.000   0.000  -0.341
 pseudopotential strength for first ion, spin component:           2
 -2.321  -0.008   0.002   0.000   0.000
 -0.008   0.049   0.002   0.000   0.000
  0.002   0.002  -0.334   0.000   0.000
  0.000   0.000   0.000  -0.341   0.000
  0.000   0.000   0.000   0.000  -0.341
 total augmentation occupancy for first ion, spin component:           1
  1.868  -0.656  -0.303   0.000   0.000
 -0.656   0.309   0.104   0.000   0.000
 -0.303   0.104   0.073   0.000   0.000
  0.000   0.000   0.000   0.011   0.000
  0.000   0.000   0.000   0.000   0.009
 total augmentation occupancy for first ion, spin component:           2
  0.002   0.000   0.000   0.000   0.000
  0.000  -0.001   0.000   0.000   0.000
  0.000   0.000   0.000   0.000   0.000
  0.000   0.000   0.000   0.000   0.000
  0.000   0.000   0.000   0.000   0.000


------------------------ aborting loop because EDIFF is reached ----------------------------------------


    CHARGE:  cpu time    0.12: real time    0.12
    FORLOC:  cpu time    0.05: real time    0.05
    FORNL :  cpu time    0.36: real time    0.36
    STRESS:  cpu time    0.48: real time    0.48
    FORHAR:  cpu time    0.13: real time    0.13
    MIXING:  cpu time    0.02: real time    0.02

  FORCE on cell =-STRESS in cart. coord.  units (eV):
  Direction    XX          YY          ZZ          XY          YZ          ZX
  --------------------------------------------------------------------------------------
  Alpha Z    19.00520    19.00520    19.00520
  Ewald     657.98647   624.17415 -1113.28116     0.00000     0.00000     0.00000
  Hartree   707.18251   689.33510  -373.66418     0.00000     0.00000     0.00000
  E(xc)    -106.60201  -106.54984  -110.27948     0.00000     0.00000     0.00000
  Local   -1651.97774 -1597.54832  1136.82855     0.00000     0.00000     0.00000
  n-local   -42.00730   -42.07944   -37.60331     0.00000     0.00000     0.00000
  augment    -1.64488    -1.67469    -1.32639     0.00000     0.00000     0.00000
  Kinetic   423.88283   424.17198   477.68962     0.00000     0.00000     0.00000
  Fock        0.00000     0.00000     0.00000     0.00000     0.00000     0.00000
  -------------------------------------------------------------------------------------
  Total       5.82509     8.83415    -2.63114     0.00000     0.00000     0.00000
  in kB      43.20751    65.52719   -19.51643     0.00000     0.00000     0.00000
  external pressure =       29.74 kB  Pullay stress =        0.00 kB


 VOLUME and BASIS-vectors are now :
 -----------------------------------------------------------------------------
  energy-cutoff  :      350.00
  volume of cell :      216.00
      direct lattice vectors                 reciprocal lattice vectors
     6.000000000  0.000000000  0.000000000     0.166666667  0.000000000  0.000000000
     0.000000000  6.000000000  0.000000000     0.000000000  0.166666667  0.000000000
     0.000000000  0.000000000  6.000000000     0.000000000  0.000000000  0.166666667

  length of vectors
     6.000000000  6.000000000  6.000000000     0.166666667  0.166666667  0.166666667


 FORCES acting on ions
    electron-ion (+dipol)            ewald-force                    non-local-force                 convergence-correction
 -----------------------------------------------------------------------------------------------
   0.173E-13 -.447E+02 -.592E-06   0.305E-14 0.506E+02 -.126E-16   -.489E-28 -.577E+01 0.000E+00   -.277E-13 -.173E-02 0.368E-13
   -.452E+02 -.363E+02 0.959E-06   0.502E+02 0.396E+02 -.198E-17   -.501E+01 -.324E+01 -.757E-28   -.311E-03 -.275E-02 0.142E-14
   -.452E+02 0.363E+02 0.367E-06   0.502E+02 -.396E+02 -.962E-18   -.501E+01 0.324E+01 0.101E-27   -.311E-03 0.275E-02 -.183E-13
   0.156E-13 0.447E+02 0.592E-06   -.111E-15 -.506E+02 0.168E-17   0.000E+00 0.577E+01 0.465E-28   -.748E-14 0.173E-02 0.171E-13
   0.452E+02 0.363E+02 -.959E-06   -.502E+02 -.396E+02 -.186E-16   0.501E+01 0.324E+01 0.101E-27   0.311E-03 0.275E-02 0.580E-13
   0.452E+02 -.363E+02 -.367E-06   -.502E+02 0.396E+02 -.231E-16   0.501E+01 -.324E+01 -.101E-27   0.311E-03 -.275E-02 0.654E-13
   0.339E-13 -.117E+03 0.918E-05   -.755E-14 0.117E+03 0.105E-15   -.323E-26 -.707E+00 0.000E+00   0.364E-13 -.343E-01 0.182E-12
   -.114E+03 -.692E+02 0.710E-05   0.115E+03 0.687E+02 -.189E-16   -.688E+00 0.461E+00 0.000E+00   -.185E-01 -.229E-01 -.126E-12
   -.114E+03 0.692E+02 0.482E-05   0.115E+03 -.687E+02 0.383E-16   -.688E+00 -.461E+00 0.000E+00   -.185E-01 0.229E-01 -.236E-12
   0.326E-13 0.117E+03 -.918E-05   0.329E-13 -.117E+03 0.132E-17   0.646E-26 0.707E+00 0.000E+00   0.206E-12 0.343E-01 0.284E-13
   0.114E+03 0.692E+02 -.710E-05   -.115E+03 -.687E+02 -.477E-16   0.688E+00 -.461E+00 -.404E-27   0.185E-01 0.229E-01 0.376E-12
   0.114E+03 -.692E+02 -.482E-05   -.115E+03 0.687E+02 -.111E-15   0.688E+00 0.461E+00 0.202E-27   0.185E-01 -.229E-01 0.434E-12
 -----------------------------------------------------------------------------------------------
   -.952E-12 -.270E-12 -.642E-11   0.142E-13 0.000E+00 -.880E-16   -.222E-15 -.444E-15 -.130E-27   0.376E-12 -.534E-12 0.818E-12
 
 
 POSITION                                       TOTAL-FORCE (eV/Angst)
 -----------------------------------------------------------------------------------
      3.00000      5.39097      3.00000         0.000000      0.136308      0.000000
      5.12252      4.27460      3.00000        -0.033524      0.016373      0.000000
      5.12252      1.72540      3.00000        -0.033524     -0.016373      0.000000
      3.00000      0.60903      3.00000         0.000000     -0.136308      0.000000
      0.87748      1.72540      3.00000         0.033524     -0.016373      0.000000
      0.87748      4.27460      3.00000         0.033524      0.016373      0.000000
      3.00000      4.32957      3.00000         0.000000     -0.081035      0.000000
      4.21680      3.69469      3.00000        -0.043302      0.013093      0.000000
      4.21680      2.30531      3.00000        -0.043302     -0.013093      0.000000
      3.00000      1.67043      3.00000         0.000000      0.081035      0.000000
      1.78320      2.30531      3.00000         0.043302     -0.013093      0.000000
      1.78320      3.69469      3.00000         0.043302      0.013093      0.000000
 -----------------------------------------------------------------------------------
    total drift:                                0.000000      0.000000      0.000000


--------------------------------------------------------------------------------------------------------



  FREE ENERGIE OF THE ION-ELECTRON SYSTEM (eV)
  ---------------------------------------------------
  free  energy   TOTEN  =       -74.282248 eV

  energy  without entropy=      -74.308262  energy(sigma->0) =      -74.290919
 
 d Force = 0.3105063E-03[-0.109E-04, 0.632E-03]  d Energy = 0.3145895E-03-0.408E-05
 d Force = 0.7637132E+00[ 0.762E+00, 0.765E+00]  d Ewald  = 0.7637134E+00-0.212E-06


--------------------------------------------------------------------------------------------------------


    POTLOK:  cpu time    0.86: real time    0.86


--------------------------------------------------------------------------------------------------------




--------------------------------------------------------------------------------------------------------


  
 reached required accuracy - stopping structural energy minimisation
 writing wavefunctions
     LOOP+:  cpu time    6.06: real time    6.15
    4ORBIT:  cpu time    0.00: real time    0.00

 total amount of memory used by VASP on root node    56446. kBytes
========================================================================

   base      :      30000. kBytes
   nonl-proj :       1021. kBytes
   fftplans  :       6192. kBytes
   grid      :      16231. kBytes
   one-center:         73. kBytes
   wavefun   :       2929. kBytes
 
  
  
 General timing and accounting informations for this job:
 ========================================================
  
                  Total CPU time used (sec):      153.110
                            User time (sec):      152.135
                          System time (sec):        0.975
                         Elapsed time (sec):      154.526
  
                   Maximum memory used (kb):           0.
                   Average memory used (kb):           0.
  
                          Minor page faults:       280293
                          Major page faults:            0
                 Voluntary context switches:         2117
